
FAST Summary File

Predictions were generated on 22-Mar-2024 at 16:20:00 using OpenFAST, compiled on Mar 21 2024 at 14:06:38 as a 64-bit application using double precision at commit v3.5.2-766-gf6940082
  run with
    NWTC Subroutine Library
    InflowWind
    ElastoDyn
    AeroDyn
    ServoDyn
    SubDyn
Description from the FAST input file: 
  DTU           10MW          - Reference turbine extended to include drivetrain model in SubDyn

Interpolation order for input/output time histories: 1 (linear)
Number of correction iterations:  1
Number of rows in Jacobian matrix used for coupling ElastoDyn, SubDyn, HydroDyn, OrcaFlex, ExtPtfm_MCKF, and/or BeamDyn:     12


   Requested Time Steps  
  -------------------------------------------------
  Component          Time Step (s)    Subcycles (-)
  -----------------  ---------------  -------------
  FAST (glue code)    1.000E-02
  InflowWind          1.000E-02              1
  ElastoDyn           1.000E-02              1
  AeroDyn             1.000E-02              1
  ServoDyn            1.000E-02              1
  SubDyn              2.500E-03              4
  FAST output files   1.000E-02              1


   Requested Channels in FAST Output File(s)  
  --------------------------------------------
  Number  Name                  Units                 Generated by
  ------  --------------------  --------------------  ------------
       1  Time                  (s)                   OpenFAST
       2  Wind1VelX             (m/s)                 InflowWind
       3  Wind2VelX             INVALID               InflowWind
       4  Wind3VelX             INVALID               InflowWind
       5  TipDxc1               (m)                   ElastoDyn
       6  TipDyc1               (m)                   ElastoDyn
       7  TipDxc2               (m)                   ElastoDyn
       8  TipDyc2               (m)                   ElastoDyn
       9  TipDxc3               (m)                   ElastoDyn
      10  TipDyc3               (m)                   ElastoDyn
      11  BldPitch1             (deg)                 ElastoDyn
      12  BldPitch2             (deg)                 ElastoDyn
      13  BldPitch3             (deg)                 ElastoDyn
      14  Azimuth               (deg)                 ElastoDyn
      15  RotSpeed              (rpm)                 ElastoDyn
      16  RotAccel              (deg/s^2)             ElastoDyn
      17  LSSGagP               (deg)                 ElastoDyn
      18  LSSGagV               (rpm)                 ElastoDyn
      19  LSSGagA               (deg/s^2)             ElastoDyn
      20  GenSpeed              (rpm)                 ElastoDyn
      21  GenAccel              (deg/s^2)             ElastoDyn
      22  RootFxc1              (kN)                  ElastoDyn
      23  RootFyc1              (kN)                  ElastoDyn
      24  RootFzc1              (kN)                  ElastoDyn
      25  RootFxb1              (kN)                  ElastoDyn
      26  RootFyb1              (kN)                  ElastoDyn
      27  RootMxc1              (kN-m)                ElastoDyn
      28  RootMyc1              (kN-m)                ElastoDyn
      29  RootMzc1              (kN-m)                ElastoDyn
      30  RootMxb1              (kN-m)                ElastoDyn
      31  RootMyb1              (kN-m)                ElastoDyn
      32  RootFxc2              (kN)                  ElastoDyn
      33  RootFyc2              (kN)                  ElastoDyn
      34  RootFzc2              (kN)                  ElastoDyn
      35  RootFxb2              (kN)                  ElastoDyn
      36  RootFyb2              (kN)                  ElastoDyn
      37  RootMxc2              (kN-m)                ElastoDyn
      38  RootMyc2              (kN-m)                ElastoDyn
      39  RootMzc2              (kN-m)                ElastoDyn
      40  RootMxb2              (kN-m)                ElastoDyn
      41  RootMyb2              (kN-m)                ElastoDyn
      42  RootFxc3              (kN)                  ElastoDyn
      43  RootFyc3              (kN)                  ElastoDyn
      44  RootFzc3              (kN)                  ElastoDyn
      45  RootFxb3              (kN)                  ElastoDyn
      46  RootFyb3              (kN)                  ElastoDyn
      47  RootMxc3              (kN-m)                ElastoDyn
      48  RootMyc3              (kN-m)                ElastoDyn
      49  RootMzc3              (kN-m)                ElastoDyn
      50  RootMxb3              (kN-m)                ElastoDyn
      51  RootMyb3              (kN-m)                ElastoDyn
      52  RotThrust             (kN)                  ElastoDyn
      53  LSShftFys             (kN)                  ElastoDyn
      54  LSShftFzs             (kN)                  ElastoDyn
      55  LSShftTq              (kN-m)                ElastoDyn
      56  LSSTipMys             (kN-m)                ElastoDyn
      57  LSSTipMzs             (kN-m)                ElastoDyn
      58  LSSGagMys             (kN-m)                ElastoDyn
      59  LSSGagMzs             (kN-m)                ElastoDyn
      60  RtAeroCp              (-)                   AeroDyn
      61  RtAeroCq              (-)                   AeroDyn
      62  RtAeroCt              (-)                   AeroDyn
      63  RtAeroPwr             (W)                   AeroDyn
      64  RtSpeed               (rpm)                 AeroDyn
      65  RtTSR                 (-)                   AeroDyn
      66  RtAeroFxh             (N)                   AeroDyn
      67  RtAeroMxh             (N-m)                 AeroDyn
      68  RtAeroFyh             (N)                   AeroDyn
      69  RtAeroFzh             (N)                   AeroDyn
      70  RtAeroMyh             (N-m)                 AeroDyn
      71  RtAeroMzh             (N-m)                 AeroDyn
      72  RtAeroFxi             (N)                   AeroDyn
      73  RtAeroMxi             (N-m)                 AeroDyn
      74  RtAeroFyi             (N)                   AeroDyn
      75  RtAeroFzi             (N)                   AeroDyn
      76  RtAeroMyi             (N-m)                 AeroDyn
      77  RtAeroMzi             (N-m)                 AeroDyn
      78  TwN1VUndx             INVALID               AeroDyn
      79  TwN2VUndx             INVALID               AeroDyn
      80  TwN3VUndx             INVALID               AeroDyn
      81  TwN4VUndx             INVALID               AeroDyn
      82  TwN5VUndx             INVALID               AeroDyn
      83  TwN6VUndx             INVALID               AeroDyn
      84  B1AeroFx              (N)                   AeroDyn
      85  B1AeroFy              (N)                   AeroDyn
      86  B1AeroFz              (N)                   AeroDyn
      87  B1AeroMx              (N-m)                 AeroDyn
      88  B1AeroMy              (N-m)                 AeroDyn
      89  B1AeroMz              (N-m)                 AeroDyn
      90  B1AeroPwr             (W)                   AeroDyn
      91  B2AeroFx              (N)                   AeroDyn
      92  B2AeroFy              (N)                   AeroDyn
      93  B2AeroFz              (N)                   AeroDyn
      94  B2AeroMx              (N-m)                 AeroDyn
      95  B2AeroMy              (N-m)                 AeroDyn
      96  B2AeroMz              (N-m)                 AeroDyn
      97  B2AeroPwr             (W)                   AeroDyn
      98  B3AeroFx              (N)                   AeroDyn
      99  B3AeroFy              (N)                   AeroDyn
     100  B3AeroFz              (N)                   AeroDyn
     101  B3AeroMx              (N-m)                 AeroDyn
     102  B3AeroMy              (N-m)                 AeroDyn
     103  B3AeroMz              (N-m)                 AeroDyn
     104  B3AeroPwr             (W)                   AeroDyn
     105  GenPwr                (kW)                  ServoDyn
     106  GenTq                 (kN-m)                ServoDyn
     107  M1N1TDxss             (m)                   SubDyn
     108  M1N1TDyss             (m)                   SubDyn
     109  M1N1TDzss             (m)                   SubDyn
     110  M2N2TDxss             (m)                   SubDyn
     111  M2N2TDyss             (m)                   SubDyn
     112  M2N2TDzss             (m)                   SubDyn
     113  M1N1RDxe              (rad)                 SubDyn
     114  M1N1RDye              (rad)                 SubDyn
     115  M1N1RDze              (rad)                 SubDyn
     116  M2N2RDxe              (rad)                 SubDyn
     117  M2N2RDye              (rad)                 SubDyn
     118  M2N2RDze              (rad)                 SubDyn
     119  M2N2TAxe              (m/s^2)               SubDyn
     120  M2N2TAye              (m/s^2)               SubDyn
     121  M2N2TAze              (m/s^2)               SubDyn
     122  M2N2RAxe              (rad/s^2)             SubDyn
     123  M2N2RAye              (rad/s^2)             SubDyn
     124  M2N2RAze              (rad/s^2)             SubDyn
     125  M1N1FKxe              (N)                   SubDyn
     126  M1N1FKye              (N)                   SubDyn
     127  M1N1FKze              (N)                   SubDyn
     128  M2N2FKxe              (N)                   SubDyn
     129  M2N2FKye              (N)                   SubDyn
     130  M2N2FKze              (N)                   SubDyn
     131  M1N1MKxe              (N*m)                 SubDyn
     132  M1N1MKye              (N*m)                 SubDyn
     133  M1N1MKze              (N*m)                 SubDyn
     134  M2N2MKxe              (N*m)                 SubDyn
     135  M2N2MKye              (N*m)                 SubDyn
     136  M2N2MKze              (N*m)                 SubDyn
     137  M1N1FMxe              (N)                   SubDyn
     138  M1N1FMye              (N)                   SubDyn
     139  M1N1FMze              (N)                   SubDyn
     140  M2N2FMxe              (N)                   SubDyn
     141  M2N2FMye              (N)                   SubDyn
     142  M2N2FMze              (N)                   SubDyn
     143  M1N1MMxe              (N*m)                 SubDyn
     144  M1N1MMye              (N*m)                 SubDyn
     145  M1N1MMze              (N*m)                 SubDyn
     146  M2N2MMxe              (N*m)                 SubDyn
     147  M2N2MMye              (N*m)                 SubDyn
     148  M2N2MMze              (N*m)                 SubDyn
     149  M3N1FMxe              (N)                   SubDyn
     150  M3N1FMye              (N)                   SubDyn
     151  M3N1FMze              (N)                   SubDyn
     152  M3N2FMxe              (N)                   SubDyn
     153  M3N2FMye              (N)                   SubDyn
     154  M3N2FMze              (N)                   SubDyn
     155  M3N1MMxe              (N*m)                 SubDyn
     156  M3N1MMye              (N*m)                 SubDyn
     157  M3N1MMze              (N*m)                 SubDyn
     158  M3N2MMxe              (N*m)                 SubDyn
     159  M3N2MMye              (N*m)                 SubDyn
     160  M3N2MMze              (N*m)                 SubDyn
     161  M3N1FKxe              (N)                   SubDyn
     162  M3N1FKye              (N)                   SubDyn
     163  M3N1FKze              (N)                   SubDyn
     164  M3N2FKxe              (N)                   SubDyn
     165  M3N2FKye              (N)                   SubDyn
     166  M3N2FKze              (N)                   SubDyn
     167  M3N1MKxe              (N*m)                 SubDyn
     168  M3N1MKye              (N*m)                 SubDyn
     169  M3N1MKze              (N*m)                 SubDyn
     170  M3N2MKxe              (N*m)                 SubDyn
     171  M3N2MKye              (N*m)                 SubDyn
     172  M3N2MKze              (N*m)                 SubDyn
     173  M4N1FMxe              (N)                   SubDyn
     174  M4N1FMye              (N)                   SubDyn
     175  M4N1FMze              (N)                   SubDyn
     176  M4N2FMxe              (N)                   SubDyn
     177  M4N2FMye              (N)                   SubDyn
     178  M4N2FMze              (N)                   SubDyn
     179  M4N1MMxe              (N*m)                 SubDyn
     180  M4N1MMye              (N*m)                 SubDyn
     181  M4N1MMze              (N*m)                 SubDyn
     182  M4N2MMxe              (N*m)                 SubDyn
     183  M4N2MMye              (N*m)                 SubDyn
     184  M4N2MMze              (N*m)                 SubDyn
     185  M4N1FKxe              (N)                   SubDyn
     186  M4N1FKye              (N)                   SubDyn
     187  M4N1FKze              (N)                   SubDyn
     188  M4N2FKxe              (N)                   SubDyn
     189  M4N2FKye              (N)                   SubDyn
     190  M4N2FKze              (N)                   SubDyn
     191  M4N1MKxe              (N*m)                 SubDyn
     192  M4N1MKye              (N*m)                 SubDyn
     193  M4N1MKze              (N*m)                 SubDyn
     194  M4N2MKxe              (N*m)                 SubDyn
     195  M4N2MKye              (N*m)                 SubDyn
     196  M4N2MKze              (N*m)                 SubDyn
     197  M5N1FMxe              (N)                   SubDyn
     198  M5N1FMye              (N)                   SubDyn
     199  M5N1FMze              (N)                   SubDyn
     200  M5N2FMxe              (N)                   SubDyn
     201  M5N2FMye              (N)                   SubDyn
     202  M5N2FMze              (N)                   SubDyn
     203  M5N1MMxe              (N*m)                 SubDyn
     204  M5N1MMye              (N*m)                 SubDyn
     205  M5N1MMze              (N*m)                 SubDyn
     206  M5N2MMxe              (N*m)                 SubDyn
     207  M5N2MMye              (N*m)                 SubDyn
     208  M5N2MMze              (N*m)                 SubDyn
     209  M5N1FKxe              (N)                   SubDyn
     210  M5N1FKye              (N)                   SubDyn
     211  M5N1FKze              (N)                   SubDyn
     212  M5N2FKxe              (N)                   SubDyn
     213  M5N2FKye              (N)                   SubDyn
     214  M5N2FKze              (N)                   SubDyn
     215  M5N1MKxe              (N*m)                 SubDyn
     216  M5N1MKye              (N*m)                 SubDyn
     217  M5N1MKze              (N*m)                 SubDyn
     218  M5N2MKxe              (N*m)                 SubDyn
     219  M5N2MKye              (N*m)                 SubDyn
     220  M5N2MKze              (N*m)                 SubDyn
     221  M6N1FMxe              (N)                   SubDyn
     222  M6N1FMye              (N)                   SubDyn
     223  M6N1FMze              (N)                   SubDyn
     224  M6N2FMxe              (N)                   SubDyn
     225  M6N2FMye              (N)                   SubDyn
     226  M6N2FMze              (N)                   SubDyn
     227  M6N1MMxe              (N*m)                 SubDyn
     228  M6N1MMye              (N*m)                 SubDyn
     229  M6N1MMze              (N*m)                 SubDyn
     230  M6N2MMxe              (N*m)                 SubDyn
     231  M6N2MMye              (N*m)                 SubDyn
     232  M6N2MMze              (N*m)                 SubDyn
     233  M6N1FKxe              (N)                   SubDyn
     234  M6N1FKye              (N)                   SubDyn
     235  M6N1FKze              (N)                   SubDyn
     236  M6N2FKxe              (N)                   SubDyn
     237  M6N2FKye              (N)                   SubDyn
     238  M6N2FKze              (N)                   SubDyn
     239  M6N1MKxe              (N*m)                 SubDyn
     240  M6N1MKye              (N*m)                 SubDyn
     241  M6N1MKze              (N*m)                 SubDyn
     242  M6N2MKxe              (N*m)                 SubDyn
     243  M6N2MKye              (N*m)                 SubDyn
     244  M6N2MKze              (N*m)                 SubDyn
     245  M7N1FMxe              (N)                   SubDyn
     246  M7N1FMye              (N)                   SubDyn
     247  M7N1FMze              (N)                   SubDyn
     248  M7N2FMxe              (N)                   SubDyn
     249  M7N2FMye              (N)                   SubDyn
     250  M7N2FMze              (N)                   SubDyn
     251  M7N1MMxe              (N*m)                 SubDyn
     252  M7N1MMye              (N*m)                 SubDyn
     253  M7N1MMze              (N*m)                 SubDyn
     254  M7N2MMxe              (N*m)                 SubDyn
     255  M7N2MMye              (N*m)                 SubDyn
     256  M7N2MMze              (N*m)                 SubDyn
     257  M7N1FKxe              (N)                   SubDyn
     258  M7N1FKye              (N)                   SubDyn
     259  M7N1FKze              (N)                   SubDyn
     260  M7N2FKxe              (N)                   SubDyn
     261  M7N2FKye              (N)                   SubDyn
     262  M7N2FKze              (N)                   SubDyn
     263  M7N1MKxe              (N*m)                 SubDyn
     264  M7N1MKye              (N*m)                 SubDyn
     265  M7N1MKze              (N*m)                 SubDyn
     266  M7N2MKxe              (N*m)                 SubDyn
     267  M7N2MKye              (N*m)                 SubDyn
     268  M7N2MKze              (N*m)                 SubDyn
     269  ReactFXss             (N)                   SubDyn
     270  ReactFYss             (N)                   SubDyn
     271  ReactFZss             (N)                   SubDyn
     272  ReactMXss             (N*m)                 SubDyn
     273  ReactMYss             (N*m)                 SubDyn
     274  ReactMZss             (N*m)                 SubDyn
     275  IntfFXss              (N)                   SubDyn
     276  IntfFYss              (N)                   SubDyn
     277  IntfFZss              (N)                   SubDyn
     278  IntfMXss              (N*m)                 SubDyn
     279  IntfMYss              (N*m)                 SubDyn
     280  IntfMZss              (N*m)                 SubDyn
     281  IntfTDXss             (m)                   SubDyn
     282  IntfTDYss             (m)                   SubDyn
     283  IntfTDZss             (m)                   SubDyn
     284  IntfRDXss             (rad)                 SubDyn
     285  IntfRDYss             (rad)                 SubDyn
     286  IntfRDZss             (rad)                 SubDyn
