
FAST Summary File

Predictions were generated on 22-Mar-2024 at 16:16:52 using OpenFAST, compiled on Mar 21 2024 at 14:06:38 as a 64-bit application using double precision at commit v3.5.2-766-gf6940082
  run with
    NWTC Subroutine Library
    InflowWind
    ElastoDyn
    AeroDyn
    ServoDyn
    SubDyn
Description from the FAST input file: 
  DTU           10MW          - RWT - Landbased

Interpolation order for input/output time histories: 1 (linear)
Number of correction iterations:  1
Number of rows in Jacobian matrix used for coupling ElastoDyn, SubDyn, HydroDyn, OrcaFlex, ExtPtfm_MCKF, and/or BeamDyn:     12


   Requested Time Steps  
  -------------------------------------------------
  Component          Time Step (s)    Subcycles (-)
  -----------------  ---------------  -------------
  FAST (glue code)    4.000E-03
  InflowWind          4.000E-03              1
  ElastoDyn           4.000E-03              1
  AeroDyn             4.000E-03              1
  ServoDyn            4.000E-03              1
  SubDyn              2.000E-03              2
  FAST output files   4.000E-03              1


   Requested Channels in FAST Output File(s)  
  --------------------------------------------
  Number  Name                  Units                 Generated by
  ------  --------------------  --------------------  ------------
       1  Time                  (s)                   OpenFAST
       2  Wind1VelX             (m/s)                 InflowWind
       3  Wind1VelY             (m/s)                 InflowWind
       4  Wind1VelZ             (m/s)                 InflowWind
       5  TipDxc1               (m)                   ElastoDyn
       6  TipDyc1               (m)                   ElastoDyn
       7  TipDxc2               (m)                   ElastoDyn
       8  TipDyc2               (m)                   ElastoDyn
       9  TipDxc3               (m)                   ElastoDyn
      10  TipDyc3               (m)                   ElastoDyn
      11  BldPitch1             (deg)                 ElastoDyn
      12  BldPitch2             (deg)                 ElastoDyn
      13  BldPitch3             (deg)                 ElastoDyn
      14  PtfmSurge             (m)                   ElastoDyn
      15  PtfmSway              (m)                   ElastoDyn
      16  PtfmHeave             (m)                   ElastoDyn
      17  PtfmRoll              (deg)                 ElastoDyn
      18  PtfmPitch             (deg)                 ElastoDyn
      19  PtfmYaw               (deg)                 ElastoDyn
      20  Azimuth               (deg)                 ElastoDyn
      21  RotSpeed              (rpm)                 ElastoDyn
      22  RotAccel              (deg/s^2)             ElastoDyn
      23  LSSGagP               (deg)                 ElastoDyn
      24  LSSGagV               (rpm)                 ElastoDyn
      25  LSSGagA               (deg/s^2)             ElastoDyn
      26  GenSpeed              (rpm)                 ElastoDyn
      27  GenAccel              (deg/s^2)             ElastoDyn
      28  YawPos                (deg)                 ElastoDyn
      29  YawRate               (deg/s)               ElastoDyn
      30  YawAccel              (deg/s^2)             ElastoDyn
      31  YawBrTDxp             (m)                   ElastoDyn
      32  YawBrTDyp             (m)                   ElastoDyn
      33  YawBrTDzp             (m)                   ElastoDyn
      34  YawBrTDxt             (m)                   ElastoDyn
      35  YawBrTDyt             (m)                   ElastoDyn
      36  YawBrTDzt             (m)                   ElastoDyn
      37  YawBrTAxp             (m/s^2)               ElastoDyn
      38  YawBrTAyp             (m/s^2)               ElastoDyn
      39  YawBrTAzp             (m/s^2)               ElastoDyn
      40  YawBrRAxp             (deg/s^2)             ElastoDyn
      41  YawBrRAyp             (deg/s^2)             ElastoDyn
      42  YawBrRAzp             (deg/s^2)             ElastoDyn
      43  RootFxc1              (kN)                  ElastoDyn
      44  RootFyc1              (kN)                  ElastoDyn
      45  RootFzc1              (kN)                  ElastoDyn
      46  RootFxb1              (kN)                  ElastoDyn
      47  RootFyb1              (kN)                  ElastoDyn
      48  RootMxc1              (kN-m)                ElastoDyn
      49  RootMyc1              (kN-m)                ElastoDyn
      50  RootMzc1              (kN-m)                ElastoDyn
      51  RootMxb1              (kN-m)                ElastoDyn
      52  RootMyb1              (kN-m)                ElastoDyn
      53  RootFxc2              (kN)                  ElastoDyn
      54  RootFyc2              (kN)                  ElastoDyn
      55  RootFzc2              (kN)                  ElastoDyn
      56  RootFxb2              (kN)                  ElastoDyn
      57  RootFyb2              (kN)                  ElastoDyn
      58  RootMxc2              (kN-m)                ElastoDyn
      59  RootMyc2              (kN-m)                ElastoDyn
      60  RootMzc2              (kN-m)                ElastoDyn
      61  RootMxb2              (kN-m)                ElastoDyn
      62  RootMyb2              (kN-m)                ElastoDyn
      63  RootFxc3              (kN)                  ElastoDyn
      64  RootFyc3              (kN)                  ElastoDyn
      65  RootFzc3              (kN)                  ElastoDyn
      66  RootFxb3              (kN)                  ElastoDyn
      67  RootFyb3              (kN)                  ElastoDyn
      68  RootMxc3              (kN-m)                ElastoDyn
      69  RootMyc3              (kN-m)                ElastoDyn
      70  RootMzc3              (kN-m)                ElastoDyn
      71  RootMxb3              (kN-m)                ElastoDyn
      72  RootMyb3              (kN-m)                ElastoDyn
      73  RotThrust             (kN)                  ElastoDyn
      74  LSShftFya             (kN)                  ElastoDyn
      75  LSShftFza             (kN)                  ElastoDyn
      76  LSShftFys             (kN)                  ElastoDyn
      77  LSShftFzs             (kN)                  ElastoDyn
      78  LSShftTq              (kN-m)                ElastoDyn
      79  LSSTipMya             (kN-m)                ElastoDyn
      80  LSSTipMza             (kN-m)                ElastoDyn
      81  LSSTipMys             (kN-m)                ElastoDyn
      82  LSSTipMzs             (kN-m)                ElastoDyn
      83  LSSGagMya             (kN-m)                ElastoDyn
      84  LSSGagMza             (kN-m)                ElastoDyn
      85  LSSGagMys             (kN-m)                ElastoDyn
      86  LSSGagMzs             (kN-m)                ElastoDyn
      87  HSShftTq              (kN-m)                ElastoDyn
      88  HSShftPwr             (kW)                  ElastoDyn
      89  HSSBrTq               (kN-m)                ElastoDyn
      90  YawBrFxn              (kN)                  ElastoDyn
      91  YawBrFyn              (kN)                  ElastoDyn
      92  YawBrFzn              (kN)                  ElastoDyn
      93  YawBrFxp              (kN)                  ElastoDyn
      94  YawBrFyp              (kN)                  ElastoDyn
      95  YawBrMxn              (kN-m)                ElastoDyn
      96  YawBrMyn              (kN-m)                ElastoDyn
      97  YawBrMzn              (kN-m)                ElastoDyn
      98  YawBrMxp              (kN-m)                ElastoDyn
      99  YawBrMyp              (kN-m)                ElastoDyn
     100  TwrBsFxt              (kN)                  ElastoDyn
     101  TwrBsFyt              (kN)                  ElastoDyn
     102  TwrBsFzt              (kN)                  ElastoDyn
     103  TwrBsMxt              (kN-m)                ElastoDyn
     104  TwrBsMyt              (kN-m)                ElastoDyn
     105  TwrBsMzt              (kN-m)                ElastoDyn
     106  TTDspRoll             (deg)                 ElastoDyn
     107  TTDspPtch             (deg)                 ElastoDyn
     108  TTDspTwst             (deg)                 ElastoDyn
     109  RtAeroCp              (-)                   AeroDyn
     110  RtAeroCq              (-)                   AeroDyn
     111  RtAeroCt              (-)                   AeroDyn
     112  RtAeroPwr             (W)                   AeroDyn
     113  RtSpeed               (rpm)                 AeroDyn
     114  RtTSR                 (-)                   AeroDyn
     115  RtAeroFxh             (N)                   AeroDyn
     116  RtAeroMxh             (N-m)                 AeroDyn
     117  RtAeroFyh             (N)                   AeroDyn
     118  RtAeroFzh             (N)                   AeroDyn
     119  RtAeroMyh             (N-m)                 AeroDyn
     120  RtAeroMzh             (N-m)                 AeroDyn
     121  RtAeroFxi             (N)                   AeroDyn
     122  RtAeroMxi             (N-m)                 AeroDyn
     123  RtAeroFyi             (N)                   AeroDyn
     124  RtAeroFzi             (N)                   AeroDyn
     125  RtAeroMyi             (N-m)                 AeroDyn
     126  RtAeroMzi             (N-m)                 AeroDyn
     127  TwN1VUndx             INVALID               AeroDyn
     128  TwN2VUndx             INVALID               AeroDyn
     129  TwN3VUndx             INVALID               AeroDyn
     130  TwN4VUndx             INVALID               AeroDyn
     131  TwN5VUndx             INVALID               AeroDyn
     132  TwN6VUndx             INVALID               AeroDyn
     133  GenPwr                (kW)                  ServoDyn
     134  GenTq                 (kN-m)                ServoDyn
     135  M1N1TDxss             (m)                   SubDyn
     136  M1N1TDyss             (m)                   SubDyn
     137  M1N1TDzss             (m)                   SubDyn
     138  M2N2TDxss             (m)                   SubDyn
     139  M2N2TDyss             (m)                   SubDyn
     140  M2N2TDzss             (m)                   SubDyn
     141  M1N1RDxe              (rad)                 SubDyn
     142  M1N1RDye              (rad)                 SubDyn
     143  M1N1RDze              (rad)                 SubDyn
     144  M2N2RDxe              (rad)                 SubDyn
     145  M2N2RDye              (rad)                 SubDyn
     146  M2N2RDze              (rad)                 SubDyn
     147  M2N2TAxe              (m/s^2)               SubDyn
     148  M2N2TAye              (m/s^2)               SubDyn
     149  M2N2TAze              (m/s^2)               SubDyn
     150  M2N2RAxe              (rad/s^2)             SubDyn
     151  M2N2RAye              (rad/s^2)             SubDyn
     152  M2N2RAze              (rad/s^2)             SubDyn
     153  M1N1FKxe              (N)                   SubDyn
     154  M1N1FKye              (N)                   SubDyn
     155  M1N1FKze              (N)                   SubDyn
     156  M2N2FKxe              (N)                   SubDyn
     157  M2N2FKye              (N)                   SubDyn
     158  M2N2FKze              (N)                   SubDyn
     159  M1N1MKxe              (N*m)                 SubDyn
     160  M1N1MKye              (N*m)                 SubDyn
     161  M1N1MKze              (N*m)                 SubDyn
     162  M2N2MKxe              (N*m)                 SubDyn
     163  M2N2MKye              (N*m)                 SubDyn
     164  M2N2MKze              (N*m)                 SubDyn
     165  M1N1FMxe              (N)                   SubDyn
     166  M1N1FMye              (N)                   SubDyn
     167  M1N1FMze              (N)                   SubDyn
     168  M2N2FMxe              (N)                   SubDyn
     169  M2N2FMye              (N)                   SubDyn
     170  M2N2FMze              (N)                   SubDyn
     171  M1N1MMxe              (N*m)                 SubDyn
     172  M1N1MMye              (N*m)                 SubDyn
     173  M1N1MMze              (N*m)                 SubDyn
     174  M2N2MMxe              (N*m)                 SubDyn
     175  M2N2MMye              (N*m)                 SubDyn
     176  M2N2MMze              (N*m)                 SubDyn
     177  M3N1TDxss             (m)                   SubDyn
     178  M3N1TDyss             (m)                   SubDyn
     179  M3N1TDzss             (m)                   SubDyn
     180  M3N1RDxe              (rad)                 SubDyn
     181  M3N1RDye              (rad)                 SubDyn
     182  M3N1RDze              (rad)                 SubDyn
     183  M3N2TDxss             (m)                   SubDyn
     184  M3N2TDyss             (m)                   SubDyn
     185  M3N2TDzss             (m)                   SubDyn
     186  M3N2RDxe              (rad)                 SubDyn
     187  M3N2RDye              (rad)                 SubDyn
     188  M3N2RDze              (rad)                 SubDyn
     189  M3N1TAxe              (m/s^2)               SubDyn
     190  M3N1TAye              (m/s^2)               SubDyn
     191  M3N1TAze              (m/s^2)               SubDyn
     192  M3N1RAxe              (rad/s^2)             SubDyn
     193  M3N1RAye              (rad/s^2)             SubDyn
     194  M3N1RAze              (rad/s^2)             SubDyn
     195  M3N2TAxe              (m/s^2)               SubDyn
     196  M3N2TAye              (m/s^2)               SubDyn
     197  M3N2TAze              (m/s^2)               SubDyn
     198  M3N2RAxe              (rad/s^2)             SubDyn
     199  M3N2RAye              (rad/s^2)             SubDyn
     200  M3N2RAze              (rad/s^2)             SubDyn
     201  M3N1FMxe              (N)                   SubDyn
     202  M3N1FMye              (N)                   SubDyn
     203  M3N1FMze              (N)                   SubDyn
     204  M3N2FMxe              (N)                   SubDyn
     205  M3N2FMye              (N)                   SubDyn
     206  M3N2FMze              (N)                   SubDyn
     207  M3N1MMxe              (N*m)                 SubDyn
     208  M3N1MMye              (N*m)                 SubDyn
     209  M3N1MMze              (N*m)                 SubDyn
     210  M3N2MMxe              (N*m)                 SubDyn
     211  M3N2MMye              (N*m)                 SubDyn
     212  M3N2MMze              (N*m)                 SubDyn
     213  M3N1FKxe              (N)                   SubDyn
     214  M3N1FKye              (N)                   SubDyn
     215  M3N1FKze              (N)                   SubDyn
     216  M3N2FKxe              (N)                   SubDyn
     217  M3N2FKye              (N)                   SubDyn
     218  M3N2FKze              (N)                   SubDyn
     219  M3N1MKxe              (N*m)                 SubDyn
     220  M3N1MKye              (N*m)                 SubDyn
     221  M3N1MKze              (N*m)                 SubDyn
     222  M3N2MKxe              (N*m)                 SubDyn
     223  M3N2MKye              (N*m)                 SubDyn
     224  M3N2MKze              (N*m)                 SubDyn
     225  M4N1TDxss             (m)                   SubDyn
     226  M4N1TDyss             (m)                   SubDyn
     227  M4N1TDzss             (m)                   SubDyn
     228  M4N1RDxe              (rad)                 SubDyn
     229  M4N1RDye              (rad)                 SubDyn
     230  M4N1RDze              (rad)                 SubDyn
     231  M4N2TDxss             (m)                   SubDyn
     232  M4N2TDyss             (m)                   SubDyn
     233  M4N2TDzss             (m)                   SubDyn
     234  M4N2RDxe              (rad)                 SubDyn
     235  M4N2RDye              (rad)                 SubDyn
     236  M4N2RDze              (rad)                 SubDyn
     237  M4N1TAxe              (m/s^2)               SubDyn
     238  M4N1TAye              (m/s^2)               SubDyn
     239  M4N1TAze              (m/s^2)               SubDyn
     240  M4N1RAxe              (rad/s^2)             SubDyn
     241  M4N1RAye              (rad/s^2)             SubDyn
     242  M4N1RAze              (rad/s^2)             SubDyn
     243  M4N2TAxe              (m/s^2)               SubDyn
     244  M4N2TAye              (m/s^2)               SubDyn
     245  M4N2TAze              (m/s^2)               SubDyn
     246  M4N2RAxe              (rad/s^2)             SubDyn
     247  M4N2RAye              (rad/s^2)             SubDyn
     248  M4N2RAze              (rad/s^2)             SubDyn
     249  M4N1FMxe              (N)                   SubDyn
     250  M4N1FMye              (N)                   SubDyn
     251  M4N1FMze              (N)                   SubDyn
     252  M4N2FMxe              (N)                   SubDyn
     253  M4N2FMye              (N)                   SubDyn
     254  M4N2FMze              (N)                   SubDyn
     255  M4N1MMxe              (N*m)                 SubDyn
     256  M4N1MMye              (N*m)                 SubDyn
     257  M4N1MMze              (N*m)                 SubDyn
     258  M4N2MMxe              (N*m)                 SubDyn
     259  M4N2MMye              (N*m)                 SubDyn
     260  M4N2MMze              (N*m)                 SubDyn
     261  M4N1FKxe              (N)                   SubDyn
     262  M4N1FKye              (N)                   SubDyn
     263  M4N1FKze              (N)                   SubDyn
     264  M4N2FKxe              (N)                   SubDyn
     265  M4N2FKye              (N)                   SubDyn
     266  M4N2FKze              (N)                   SubDyn
     267  M4N1MKxe              (N*m)                 SubDyn
     268  M4N1MKye              (N*m)                 SubDyn
     269  M4N1MKze              (N*m)                 SubDyn
     270  M4N2MKxe              (N*m)                 SubDyn
     271  M4N2MKye              (N*m)                 SubDyn
     272  M4N2MKze              (N*m)                 SubDyn
     273  M5N1TDxss             (m)                   SubDyn
     274  M5N1TDyss             (m)                   SubDyn
     275  M5N1TDzss             (m)                   SubDyn
     276  M5N1RDxe              (rad)                 SubDyn
     277  M5N1RDye              (rad)                 SubDyn
     278  M5N1RDze              (rad)                 SubDyn
     279  M5N2TDxss             (m)                   SubDyn
     280  M5N2TDyss             (m)                   SubDyn
     281  M5N2TDzss             (m)                   SubDyn
     282  M5N2RDxe              (rad)                 SubDyn
     283  M5N2RDye              (rad)                 SubDyn
     284  M5N2RDze              (rad)                 SubDyn
     285  M5N1FMxe              (N)                   SubDyn
     286  M5N1FMye              (N)                   SubDyn
     287  M5N1FMze              (N)                   SubDyn
     288  M5N2FMxe              (N)                   SubDyn
     289  M5N2FMye              (N)                   SubDyn
     290  M5N2FMze              (N)                   SubDyn
     291  M5N1MMxe              (N*m)                 SubDyn
     292  M5N1MMye              (N*m)                 SubDyn
     293  M5N1MMze              (N*m)                 SubDyn
     294  M5N2MMxe              (N*m)                 SubDyn
     295  M5N2MMye              (N*m)                 SubDyn
     296  M5N2MMze              (N*m)                 SubDyn
     297  M5N1FKxe              (N)                   SubDyn
     298  M5N1FKye              (N)                   SubDyn
     299  M5N1FKze              (N)                   SubDyn
     300  M5N2FKxe              (N)                   SubDyn
     301  M5N2FKye              (N)                   SubDyn
     302  M5N2FKze              (N)                   SubDyn
     303  M5N1MKxe              (N*m)                 SubDyn
     304  M5N1MKye              (N*m)                 SubDyn
     305  M5N1MKze              (N*m)                 SubDyn
     306  M5N2MKxe              (N*m)                 SubDyn
     307  M5N2MKye              (N*m)                 SubDyn
     308  M5N2MKze              (N*m)                 SubDyn
     309  M6N1TDxss             (m)                   SubDyn
     310  M6N1TDyss             (m)                   SubDyn
     311  M6N1TDzss             (m)                   SubDyn
     312  M6N1RDxe              (rad)                 SubDyn
     313  M6N1RDye              (rad)                 SubDyn
     314  M6N1RDze              (rad)                 SubDyn
     315  M6N2TDxss             (m)                   SubDyn
     316  M6N2TDyss             (m)                   SubDyn
     317  M6N2TDzss             (m)                   SubDyn
     318  M6N2RDxe              (rad)                 SubDyn
     319  M6N2RDye              (rad)                 SubDyn
     320  M6N2RDze              (rad)                 SubDyn
     321  M6N1FMxe              (N)                   SubDyn
     322  M6N1FMye              (N)                   SubDyn
     323  M6N1FMze              (N)                   SubDyn
     324  M6N2FMxe              (N)                   SubDyn
     325  M6N2FMye              (N)                   SubDyn
     326  M6N2FMze              (N)                   SubDyn
     327  M6N1MMxe              (N*m)                 SubDyn
     328  M6N1MMye              (N*m)                 SubDyn
     329  M6N1MMze              (N*m)                 SubDyn
     330  M6N2MMxe              (N*m)                 SubDyn
     331  M6N2MMye              (N*m)                 SubDyn
     332  M6N2MMze              (N*m)                 SubDyn
     333  M6N1FKxe              (N)                   SubDyn
     334  M6N1FKye              (N)                   SubDyn
     335  M6N1FKze              (N)                   SubDyn
     336  M6N2FKxe              (N)                   SubDyn
     337  M6N2FKye              (N)                   SubDyn
     338  M6N2FKze              (N)                   SubDyn
     339  M6N1MKxe              (N*m)                 SubDyn
     340  M6N1MKye              (N*m)                 SubDyn
     341  M6N1MKze              (N*m)                 SubDyn
     342  M6N2MKxe              (N*m)                 SubDyn
     343  M6N2MKye              (N*m)                 SubDyn
     344  M6N2MKze              (N*m)                 SubDyn
     345  M7N1TDxss             (m)                   SubDyn
     346  M7N1TDyss             (m)                   SubDyn
     347  M7N1TDzss             (m)                   SubDyn
     348  M7N1RDxe              (rad)                 SubDyn
     349  M7N1RDye              (rad)                 SubDyn
     350  M7N1RDze              (rad)                 SubDyn
     351  M7N2TDxss             (m)                   SubDyn
     352  M7N2TDyss             (m)                   SubDyn
     353  M7N2TDzss             (m)                   SubDyn
     354  M7N2RDxe              (rad)                 SubDyn
     355  M7N2RDye              (rad)                 SubDyn
     356  M7N2RDze              (rad)                 SubDyn
     357  M7N1FMxe              (N)                   SubDyn
     358  M7N1FMye              (N)                   SubDyn
     359  M7N1FMze              (N)                   SubDyn
     360  M7N2FMxe              (N)                   SubDyn
     361  M7N2FMye              (N)                   SubDyn
     362  M7N2FMze              (N)                   SubDyn
     363  M7N1MMxe              (N*m)                 SubDyn
     364  M7N1MMye              (N*m)                 SubDyn
     365  M7N1MMze              (N*m)                 SubDyn
     366  M7N2MMxe              (N*m)                 SubDyn
     367  M7N2MMye              (N*m)                 SubDyn
     368  M7N2MMze              (N*m)                 SubDyn
     369  M7N1FKxe              (N)                   SubDyn
     370  M7N1FKye              (N)                   SubDyn
     371  M7N1FKze              (N)                   SubDyn
     372  M7N2FKxe              (N)                   SubDyn
     373  M7N2FKye              (N)                   SubDyn
     374  M7N2FKze              (N)                   SubDyn
     375  M7N1MKxe              (N*m)                 SubDyn
     376  M7N1MKye              (N*m)                 SubDyn
     377  M7N1MKze              (N*m)                 SubDyn
     378  M7N2MKxe              (N*m)                 SubDyn
     379  M7N2MKye              (N*m)                 SubDyn
     380  M7N2MKze              (N*m)                 SubDyn
     381  M8N1TDxss             (m)                   SubDyn
     382  M8N1TDyss             (m)                   SubDyn
     383  M8N1TDzss             (m)                   SubDyn
     384  M8N1RDxe              (rad)                 SubDyn
     385  M8N1RDye              (rad)                 SubDyn
     386  M8N1RDze              (rad)                 SubDyn
     387  M8N2TDxss             (m)                   SubDyn
     388  M8N2TDyss             (m)                   SubDyn
     389  M8N2TDzss             (m)                   SubDyn
     390  M8N2RDxe              (rad)                 SubDyn
     391  M8N2RDye              (rad)                 SubDyn
     392  M8N2RDze              (rad)                 SubDyn
     393  M9N1TDxss             (m)                   SubDyn
     394  M9N1TDyss             (m)                   SubDyn
     395  M9N1TDzss             (m)                   SubDyn
     396  M9N1RDxe              (rad)                 SubDyn
     397  M9N1RDye              (rad)                 SubDyn
     398  M9N1RDze              (rad)                 SubDyn
     399  M9N2TDxss             (m)                   SubDyn
     400  M9N2TDyss             (m)                   SubDyn
     401  M9N2TDzss             (m)                   SubDyn
     402  M9N2RDxe              (rad)                 SubDyn
     403  M9N2RDye              (rad)                 SubDyn
     404  M9N2RDze              (rad)                 SubDyn
     405  ReactFXss             (N)                   SubDyn
     406  ReactFYss             (N)                   SubDyn
     407  ReactFZss             (N)                   SubDyn
     408  ReactMXss             (N*m)                 SubDyn
     409  ReactMYss             (N*m)                 SubDyn
     410  ReactMZss             (N*m)                 SubDyn
     411  IntfFXss              (N)                   SubDyn
     412  IntfFYss              (N)                   SubDyn
     413  IntfFZss              (N)                   SubDyn
     414  IntfMXss              (N*m)                 SubDyn
     415  IntfMYss              (N*m)                 SubDyn
     416  IntfMZss              (N*m)                 SubDyn
     417  IntfTDXss             (m)                   SubDyn
     418  IntfTDYss             (m)                   SubDyn
     419  IntfTDZss             (m)                   SubDyn
     420  IntfRDXss             (rad)                 SubDyn
     421  IntfRDYss             (rad)                 SubDyn
     422  IntfRDZss             (rad)                 SubDyn
     423  IntfTAXss             (m/s^2)               SubDyn
     424  IntfTAYss             (m/s^2)               SubDyn
     425  IntfTAZss             (m/s^2)               SubDyn
     426  IntfRAXss             (rad/s^2)             SubDyn
     427  IntfRAYss             (rad/s^2)             SubDyn
     428  IntfRAZss             (rad/s^2)             SubDyn
     429  M1J1FKxe              (N)                   SubDyn
     430  M1J1FKye              (N)                   SubDyn
     431  M1J1FKze              (N)                   SubDyn
     432  M1J1MKxe              (N*m)                 SubDyn
     433  M1J1MKye              (N*m)                 SubDyn
     434  M1J1MKze              (N*m)                 SubDyn
     435  M1J1FMxe              (N)                   SubDyn
     436  M1J1FMye              (N)                   SubDyn
     437  M1J1FMze              (N)                   SubDyn
     438  M1J1MMxe              (N*m)                 SubDyn
     439  M1J1MMye              (N*m)                 SubDyn
     440  M1J1MMze              (N*m)                 SubDyn
     441  M1J2FKxe              (N)                   SubDyn
     442  M1J2FKye              (N)                   SubDyn
     443  M1J2FKze              (N)                   SubDyn
     444  M1J2MKxe              (N*m)                 SubDyn
     445  M1J2MKye              (N*m)                 SubDyn
     446  M1J2MKze              (N*m)                 SubDyn
     447  M1J2FMxe              (N)                   SubDyn
     448  M1J2FMye              (N)                   SubDyn
     449  M1J2FMze              (N)                   SubDyn
     450  M1J2MMxe              (N*m)                 SubDyn
     451  M1J2MMye              (N*m)                 SubDyn
     452  M1J2MMze              (N*m)                 SubDyn
     453  M2J1FKxe              (N)                   SubDyn
     454  M2J1FKye              (N)                   SubDyn
     455  M2J1FKze              (N)                   SubDyn
     456  M2J1MKxe              (N*m)                 SubDyn
     457  M2J1MKye              (N*m)                 SubDyn
     458  M2J1MKze              (N*m)                 SubDyn
     459  M2J1FMxe              (N)                   SubDyn
     460  M2J1FMye              (N)                   SubDyn
     461  M2J1FMze              (N)                   SubDyn
     462  M2J1MMxe              (N*m)                 SubDyn
     463  M2J1MMye              (N*m)                 SubDyn