<?xml version="1.0"?>
<VTKFile type="PolyData" version="0.1" byte_order="LittleEndian">
  <PolyData>
    <Piece NumberOfPoints="     50" NumberOfVerts="  0" NumberOfLines="     49"
           NumberOfStrips="  0" NumberOfPolys="      0">
      <Points>
        <DataArray type="Float32" NumberOfComponents="3" format="ascii">
                     -12.51835                       3.44075                     148.08471
                     -12.77680                       5.46949                     146.84957
                     -13.03682                       7.51591                     145.64606
                     -13.30482                       9.59683                     144.50552
                     -13.57682                      11.70101                     143.40709
                     -13.84902                      13.81780                     142.33100
                     -14.11840                      15.93538                     141.25559
                     -14.38354                      18.03701                     140.15095
                     -14.64603                      20.11543                     139.00462
                     -14.91557                      22.19677                     137.86520
                     -15.19371                      24.27732                     136.72652
                     -15.47807                      26.34976                     135.57507
                     -15.76360                      28.40508                     134.39363
                     -16.05004                      30.45035                     133.19466
                     -16.33838                      32.49781                     132.00002
                     -16.62834                      34.54769                     130.81008
                     -16.91980                      36.59909                     129.62319
                     -17.21214                      38.65207                     128.43932
                     -17.50754                      40.70551                     127.25701
                     -17.81053                      42.75859                     126.07596
                     -18.12427                      44.81096                     124.89633
                     -18.45168                      46.86268                     123.71895
                     -18.79034                      48.91447                     122.54448
                     -19.13692                      50.96693                     121.37317
                     -19.48959                      53.02005                     120.20454
                     -19.84529                      55.07413                     119.03835
                     -20.20448                      57.12922                     117.87483
                     -20.57520                      59.18489                     116.71520
                     -20.95981                      61.24033                     115.55861
                     -21.35857                      63.29582                     114.40562
                     -21.76792                      65.35148                     113.25558
                     -22.18538                      67.40740                     112.10801
                     -22.60782                      69.46351                     110.96200
                     -23.03334                      71.51977                     109.81704
                     -23.45999                      73.57624                     108.67273
                     -23.89332                      75.63246                     107.52962
                     -24.33552                      77.68825                     106.38797
                     -24.78530                      79.74348                     105.24720
                     -25.24233                      81.79802                     104.10704
                     -25.70524                      83.85180                     102.96698
                     -26.17294                      85.90527                     101.82756
                     -26.64568                      87.95856                     100.68909
                     -27.12329                      90.01179                      99.55171
                     -27.60847                      92.06449                      98.41529
                     -28.10086                      94.11654                      97.27949
                     -28.60034                      96.16782                      96.14411
                     -29.10649                      98.21844                      95.00921
                     -29.61964                     100.26857                      93.87519
                     -30.13812                     102.31807                      92.74140
                     -30.67813                     104.29581                      91.48610
        </DataArray>
      </Points>
      <PointData>
        <DataArray type="Float32" Name="RefOrientationX" NumberOfComponents="3" format="ascii">
                       0.97817                       0.17910                       0.10534
                       0.97809                       0.17989                       0.10476
                       0.97821                       0.18184                       0.10016
                       0.97908                       0.18206                       0.09090
                       0.98077                       0.17832                       0.07936
                       0.98300                       0.17119                       0.06632
                       0.98550                       0.16134                       0.05251
                       0.98791                       0.15024                       0.03834
                       0.98964                       0.14177                       0.02270
                       0.99061                       0.13654                       0.00633
                       0.99125                       0.13174                      -0.00802
                       0.99182                       0.12616                      -0.01924
                       0.99234                       0.12017                      -0.02871
                       0.99262                       0.11496                      -0.03859
                       0.99270                       0.11047                      -0.04843
                       0.99267                       0.10613                      -0.05777
                       0.99257                       0.10195                      -0.06643
                       0.99235                       0.09844                      -0.07446
                       0.99191                       0.09653                      -0.08239
                       0.99123                       0.09641                      -0.09037
                       0.99033                       0.09769                      -0.09848
                       0.98937                       0.09930                      -0.10626
                       0.98853                       0.10008                      -0.11313
                       0.98782                       0.10011                      -0.11916
                       0.98724                       0.09939                      -0.12442
                       0.98673                       0.09832                      -0.12920
                       0.98594                       0.09892                      -0.13466
                       0.98480                       0.10155                      -0.14089
                       0.98355                       0.10480                      -0.14712
                       0.98239                       0.10757                      -0.15280
                       0.98141                       0.10929                      -0.15774
                       0.98063                       0.11000                      -0.16207
                       0.98001                       0.10975                      -0.16592
                       0.97951                       0.10869                      -0.16955
                       0.97882                       0.10808                      -0.17387
                       0.97774                       0.10853                      -0.17956
                       0.97651                       0.10874                      -0.18601
                       0.97530                       0.10861                      -0.19232
                       0.97417                       0.10832                      -0.19816
                       0.97318                       0.10795                      -0.20313
                       0.97233                       0.10797                      -0.20714
                       0.97174                       0.10910                      -0.20931
                       0.97119                       0.11126                      -0.21075
                       0.97060                       0.11412                      -0.21193
                       0.97009                       0.11716                      -0.21258
                       0.96967                       0.12039                      -0.21270
                       0.96932                       0.12394                      -0.21226
                       0.96913                       0.12768                      -0.21092
                       0.96893                       0.13211                      -0.20909
                       0.96906                       0.13602                      -0.20599
        </DataArray>
        <DataArray type="Float32" Name="RefOrientationY" NumberOfComponents="3" format="ascii">
                       0.17903                      -0.46912                      -0.86480
                       0.17888                      -0.46891                      -0.86494
                       0.17574                      -0.46853                      -0.86579
                       0.16771                      -0.46891                      -0.86718
                       0.15584                      -0.47058                      -0.86849
                       0.14108                      -0.47321                      -0.86958
                       0.12438                      -0.47645                      -0.87036
                       0.10676                      -0.47978                      -0.87087
                       0.08909                      -0.48236                      -0.87143
                       0.07231                      -0.48420                      -0.87197
                       0.05751                      -0.48581                      -0.87217
                       0.04507                      -0.48735                      -0.87204
                       0.03397                      -0.48880                      -0.87173
                       0.02288                      -0.49008                      -0.87137
                       0.01217                      -0.49121                      -0.87096
                       0.00197                      -0.49225                      -0.87045
                      -0.00756                      -0.49320                      -0.86988
                      -0.01622                      -0.49401                      -0.86930
                      -0.02403                      -0.49464                      -0.86877
                      -0.03101                      -0.49510                      -0.86828
                      -0.03742                      -0.49547                      -0.86782
                      -0.04339                      -0.49583                      -0.86734
                      -0.04896                      -0.49623                      -0.86681
                      -0.05416                      -0.49665                      -0.86626
                      -0.05906                      -0.49708                      -0.86569
                      -0.06371                      -0.49751                      -0.86512
                      -0.06813                      -0.49788                      -0.86457
                      -0.07224                      -0.49820                      -0.86405
                      -0.07605                      -0.49851                      -0.86354
                      -0.07962                      -0.49884                      -0.86303
                      -0.08304                      -0.49918                      -0.86251
                      -0.08642                      -0.49954                      -0.86197
                      -0.08985                      -0.49992                      -0.86140
                      -0.09348                      -0.50033                      -0.86077
                      -0.09748                      -0.50078                      -0.86007
                      -0.10214                      -0.50132                      -0.85921
                      -0.10757                      -0.50197                      -0.85817
                      -0.11303                      -0.50264                      -0.85708
                      -0.11817                      -0.50327                      -0.85601
                      -0.12259                      -0.50382                      -0.85506
                      -0.12600                      -0.50426                      -0.85431
                      -0.12731                      -0.50448                      -0.85399
                      -0.12749                      -0.50459                      -0.85390
                      -0.12712                      -0.50465                      -0.85391
                      -0.12621                      -0.50464                      -0.85406
                      -0.12475                      -0.50455                      -0.85432
                      -0.12267                      -0.50438                      -0.85472
                      -0.11974                      -0.50407                      -0.85532
                      -0.11607                      -0.50365                      -0.85607
                      -0.11156                      -0.50307                      -0.85702
        </DataArray>
        <DataArray type="Float32" Name="RefOrientationZ" NumberOfComponents="3" format="ascii">
                      -0.10547                       0.86478                      -0.49095
                      -0.10648                       0.86473                      -0.49081
                      -0.11050                       0.86453                      -0.49027
                      -0.11526                       0.86428                      -0.48963
                      -0.11753                       0.86415                      -0.48931
                      -0.11749                       0.86415                      -0.48932
                      -0.11541                       0.86427                      -0.48961
                      -0.11244                       0.86443                      -0.49001
                      -0.11260                       0.86443                      -0.48999
                      -0.11600                       0.86424                      -0.48953
                      -0.11880                       0.86408                      -0.48914
                      -0.11939                       0.86404                      -0.48905
                      -0.11879                       0.86408                      -0.48914
                      -0.11909                       0.86406                      -0.48910
                      -0.12001                       0.86401                      -0.48897
                      -0.12082                       0.86396                      -0.48886
                      -0.12144                       0.86392                      -0.48877
                      -0.12236                       0.86386                      -0.48864
                      -0.12461                       0.86372                      -0.48832
                      -0.12845                       0.86347                      -0.48777
                      -0.13357                       0.86311                      -0.48703
                      -0.13881                       0.86272                      -0.48625
                      -0.14289                       0.86241                      -0.48563
                      -0.14590                       0.86216                      -0.48518
                      -0.14788                       0.86199                      -0.48487
                      -0.14933                       0.86187                      -0.48465
                      -0.15256                       0.86159                      -0.48414
                      -0.15794                       0.86109                      -0.48329
                      -0.16384                       0.86053                      -0.48234
                      -0.16906                       0.86000                      -0.48148
                      -0.17301                       0.85958                      -0.48083
                      -0.17578                       0.85928                      -0.48036
                      -0.17749                       0.85909                      -0.48007
                      -0.17839                       0.85899                      -0.47992
                      -0.18003                       0.85880                      -0.47964
                      -0.18327                       0.85843                      -0.47908
                      -0.18669                       0.85802                      -0.47849
                      -0.18975                       0.85765                      -0.47795
                      -0.19245                       0.85731                      -0.47747
                      -0.19465                       0.85704                      -0.47708
                      -0.19669                       0.85677                      -0.47671
                      -0.19877                       0.85650                      -0.47634
                      -0.20135                       0.85616                      -0.47586
                      -0.20440                       0.85575                      -0.47530
                      -0.20734                       0.85534                      -0.47476
                      -0.21017                       0.85495                      -0.47423
                      -0.21299                       0.85454                      -0.47370
                      -0.21553                       0.85417                      -0.47322
                      -0.21841                       0.85375                      -0.47267
                      -0.22019                       0.85348                      -0.47233
        </DataArray>
      </PointData>
      <Lines>
        <DataArray type="Int32" Name="connectivity" format="ascii">
      0      1
      1      2
      2      3
      3      4
      4      5
      5      6
      6      7
      7      8
      8      9
      9     10
     10     11
     11     12
     12     13
     13     14
     14     15
     15     16
     16     17
     17     18
     18     19
     19     20
     20     21
     21     22
     22     23
     23     24
     24     25
     25     26
     26     27
     27     28
     28     29
     29     30
     30     31
     31     32
     32     33
     33     34
     34     35
     35     36
     36     37
     37     38
     38     39
     39     40
     40     41
     41     42
     42     43
     43     44
     44     45
     45     46
     46     47
     47     48
     48     49
        </DataArray>
        <DataArray type="Int32" Name="offsets" format="ascii">
      2
      4
      6
      8
     10
     12
     14
     16
     18
     20
     22
     24
     26
     28
     30
     32
     34
     36
     38
     40
     42
     44
     46
     48
     50
     52
     54
     56
     58
     60
     62
     64
     66
     68
     70
     72
     74
     76
     78
     80
     82
     84
     86
     88
     90
     92
     94
     96
     98
        </DataArray>
      </Lines>
    </Piece>
  </PolyData>
</VTKFile>
