<?xml version="1.0"?>
<VTKFile type="PolyData" version="0.1" byte_order="LittleEndian">
  <PolyData>
    <Piece NumberOfPoints="     50" NumberOfVerts="  0" NumberOfLines="     49"
           NumberOfStrips="  0" NumberOfPolys="      0">
      <Points>
        <DataArray type="Float32" NumberOfComponents="3" format="ascii">
                      25.46902                       3.83285                     149.91244
                      25.29229                       6.20989                     149.74927
                      25.11713                       8.58830                     149.62201
                      24.94147                      10.96917                     149.56644
                      24.76865                      13.35193                     149.55849
                      24.60176                      15.73600                     149.57532
                      24.44285                      18.12062                     149.59194
                      24.29142                      20.50444                     149.57397
                      24.14549                      22.88666                     149.50699
                      24.00046                      25.26903                     149.44660
                      23.85482                      27.65121                     149.38560
                      23.71024                      30.03274                     149.30836
                      23.57075                      32.41306                     149.19497
                      23.43822                      34.79278                     149.05961
                      23.31415                      37.17298                     148.92719
                      23.19929                      39.55371                     148.79800
                      23.09406                      41.93487                     148.67009
                      22.99950                      44.31646                     148.54329
                      22.91375                      46.69832                     148.41588
                      22.83265                      49.08030                     148.28745
                      22.75350                      51.46244                     148.15813
                      22.67392                      53.84484                     148.02879
                      22.59695                      56.22777                     147.90001
                      22.52648                      58.61138                     147.77191
                      22.46487                      60.99574                     147.64374
                      22.41563                      63.38087                     147.51507
                      22.37888                      65.76677                     147.38599
                      22.34737                      68.15373                     147.25778
                      22.31925                      70.54193                     147.12927
                      22.29494                      72.93163                     147.00088
                      22.27858                      75.32286                     146.87161
                      22.27326                      77.71558                     146.74065
                      22.28263                      80.10962                     146.60671
                      22.30912                      82.50478                     146.46896
                      22.35516                      84.90078                     146.32669
                      22.41570                      87.29799                     146.18038
                      22.48894                      89.69657                     146.03006
                      22.57643                      92.09635                     145.87487
                      22.67870                      94.49715                     145.71426
                      22.79718                      96.89866                     145.54755
                      22.93298                      99.30059                     145.37521
                      23.08568                     101.70275                     145.19764
                      23.25514                     104.10485                     145.01510
                      23.43810                     106.50701                     144.82766
                      23.63413                     108.90885                     144.63526
                      23.84235                     111.31002                     144.43809
                      24.06188                     113.71009                     144.23678
                      24.29084                     116.10873                     144.03246
                      24.52891                     118.50510                     143.82523
                      24.74599                     120.89077                     143.47710
        </DataArray>
      </Points>
      <PointData>
        <DataArray type="Float32" Name="TranslationalVelocity" NumberOfComponents="3" format="ascii">
                       0.34798                       0.03256                       2.77371
                       0.65746                       0.17223                       4.47326
                       0.96727                       0.28604                       6.17379
                       1.27778                       0.34868                       7.87607
                       1.58886                       0.37692                       9.57966
                       1.90037                       0.38669                      11.28415
                       2.21212                       0.39557                      12.98898
                       2.52382                       0.42820                      14.69317
                       2.83533                       0.49515                      16.39617
                       3.14715                       0.55728                      18.09923
                       3.45923                       0.61994                      19.80212
                       3.77146                       0.69409                      21.50450
                       4.08369                       0.79340                      23.20593
                       4.39608                       0.90752                      24.90685
                       4.70891                       1.01844                      26.60802
                       5.02220                       1.12585                      28.30946
                       5.33595                       1.23108                      30.01110
                       5.65018                       1.33412                      31.71293
                       5.96488                       1.43646                      33.41484
                       6.28004                       1.53891                      35.11673
                       6.59570                       1.64175                      36.81864
                       6.91188                       1.74468                      38.52065
                       7.22867                       1.84688                      40.22292
                       7.54609                       1.94776                      41.92556
                       7.86419                       2.04752                      43.62858
                       8.18298                       2.14601                      45.33198
                       8.50250                       2.24315                      47.03576
                       8.82283                       2.33899                      48.74014
                       9.14401                       2.43461                      50.44524
                       9.46612                       2.52967                      52.15126
                       9.78919                       2.62434                      53.85817
                      10.11324                       2.71875                      55.56593
                      10.43827                       2.81334                      57.27439
                      10.76429                       2.90836                      58.98339
                      11.09129                       3.00397                      60.69271
                      11.41933                       3.10052                      62.40262
                      11.74848                       3.19821                      64.11324
                      12.07873                       3.29746                      65.82442
                      12.41007                       3.39854                      67.53604
                      12.74246                       3.50175                      69.24784
                      13.07587                       3.60658                      70.95962
                      13.41029                       3.71278                      72.67124
                      13.74565                       3.82017                      74.38250
                      14.08197                       3.92913                      76.09350
                      14.41916                       4.03975                      77.80400
                      14.75713                       4.15200                      79.51374
                      15.09576                       4.26551                      81.22246
                      15.43496                       4.37973                      82.92995
                      15.77451                       4.49461                      84.63564
                      16.11256                       4.71269                      86.33369
        </DataArray>
        <DataArray type="Float32" Name="RotationalVelocity" NumberOfComponents="3" format="ascii">
                       0.71465                       0.00454                      -0.13051
                       0.71465                       0.00454                      -0.13050
                       0.71465                       0.00454                      -0.13051
                       0.71464                       0.00454                      -0.13055
                       0.71464                       0.00453                      -0.13060
                       0.71463                       0.00453                      -0.13067
                       0.71462                       0.00453                      -0.13075
                       0.71461                       0.00452                      -0.13084
                       0.71459                       0.00452                      -0.13095
                       0.71458                       0.00451                      -0.13106
                       0.71456                       0.00451                      -0.13118
                       0.71454                       0.00450                      -0.13131
                       0.71452                       0.00449                      -0.13145
                       0.71449                       0.00449                      -0.13160
                       0.71447                       0.00448                      -0.13176
                       0.71444                       0.00447                      -0.13192
                       0.71441                       0.00446                      -0.13209
                       0.71438                       0.00445                      -0.13226
                       0.71435                       0.00444                      -0.13245
                       0.71432                       0.00443                      -0.13264
                       0.71428                       0.00442                      -0.13284
                       0.71424                       0.00441                      -0.13306
                       0.71420                       0.00440                      -0.13328
                       0.71416                       0.00439                      -0.13351
                       0.71411                       0.00438                      -0.13375
                       0.71406                       0.00436                      -0.13401
                       0.71401                       0.00435                      -0.13427
                       0.71396                       0.00433                      -0.13455
                       0.71390                       0.00432                      -0.13484
                       0.71384                       0.00430                      -0.13514
                       0.71377                       0.00429                      -0.13545
                       0.71370                       0.00427                      -0.13578
                       0.71363                       0.00425                      -0.13611
                       0.71355                       0.00423                      -0.13646
                       0.71347                       0.00421                      -0.13681
                       0.71339                       0.00419                      -0.13718
                       0.71330                       0.00417                      -0.13755
                       0.71321                       0.00415                      -0.13792
                       0.71311                       0.00413                      -0.13830
                       0.71302                       0.00411                      -0.13868
                       0.71292                       0.00409                      -0.13906
                       0.71282                       0.00406                      -0.13943
                       0.71273                       0.00404                      -0.13980
                       0.71264                       0.00402                      -0.14016
                       0.71255                       0.00400                      -0.14050
                       0.71247                       0.00398                      -0.14082
                       0.71240                       0.00397                      -0.14113
                       0.71233                       0.00395                      -0.14140
                       0.71228                       0.00394                      -0.14164
                       0.71224                       0.00393                      -0.14185
        </DataArray>
        <DataArray type="Float32" Name="TranslationalAcceleration" NumberOfComponents="3" format="ascii">
                      -0.00901                      -2.10467                       0.09832
                       0.01704                      -3.35892                       0.20719
                       0.03976                      -4.61405                       0.29772
                       0.05587                      -5.87082                       0.35196
                       0.06757                      -7.12883                       0.38201
                       0.07697                      -8.38768                       0.39933
                       0.08636                      -9.64684                       0.41656
                       0.09900                     -10.90538                       0.45135
                       0.11628                     -12.16278                       0.51127
                       0.13315                     -13.42030                       0.56839
                       0.15032                     -14.67772                       0.62654
                       0.16924                     -15.93467                       0.69352
                       0.19174                     -17.19067                       0.77912
                       0.21647                     -18.44614                       0.87591
                       0.24110                     -19.70183                       0.97100
                       0.26559                     -20.95774                       1.06417
                       0.29013                     -22.21383                       1.15633
                       0.31472                     -23.47010                       1.24745
                       0.33954                     -24.72645                       1.33858
                       0.36471                     -25.98282                       1.43026
                       0.39025                     -27.23921                       1.52269
                       0.41612                     -28.49570                       1.61562
                       0.44219                     -29.75243                       1.70848
                       0.46839                     -31.00949                       1.80081
                       0.49471                     -32.26689                       1.89277
                       0.52113                     -33.52464                       1.98423
                       0.54760                     -34.78275                       2.07513
                       0.57413                     -36.04139                       2.16553
                       0.60083                     -37.30063                       2.25622
                       0.62766                     -38.56062                       2.34696
                       0.65459                     -39.82136                       2.43788
                       0.68164                     -41.08283                       2.52910
                       0.70883                     -42.34490                       2.62095
                       0.73618                     -43.60746                       2.71361
                       0.76367                     -44.87036                       2.80722
                       0.79135                     -46.13377                       2.90205
                       0.81922                     -47.39780                       2.99826
                       0.84731                     -48.66231                       3.09616
                       0.87564                     -49.92721                       3.19596
                       0.90423                     -51.19230                       3.29786
                       0.93299                     -52.45743                       3.40149
                       0.96185                     -53.72251                       3.50664
                       0.99078                     -54.98738                       3.61317
                       1.01980                     -56.25212                       3.72130
                       1.04889                     -57.51652                       3.83105
                       1.07804                     -58.78041                       3.94230
                       1.10717                     -60.04358                       4.05471
                       1.13617                     -61.30590                       4.16774
                       1.16502                     -62.56693                       4.28121
                       1.20807                     -63.82011                       4.46796
        </DataArray>
        <DataArray type="Float32" Name="OrientationX" NumberOfComponents="3" format="ascii">
                       0.99268                       0.07209                       0.09688
                       0.99262                       0.07316                       0.09673
                       0.99267                       0.07660                       0.09352
                       0.99313                       0.08004                       0.08535
                       0.99406                       0.08045                       0.07333
                       0.99524                       0.07805                       0.05841
                       0.99645                       0.07316                       0.04159
                       0.99747                       0.06697                       0.02389
                       0.99796                       0.06351                       0.00615
                       0.99796                       0.06301                      -0.01072
                       0.99777                       0.06173                      -0.02555
                       0.99759                       0.05811                      -0.03795
                       0.99739                       0.05312                      -0.04895
                       0.99701                       0.04882                      -0.05993
                       0.99650                       0.04495                      -0.07053
                       0.99591                       0.04080                      -0.08059
                       0.99528                       0.03629                      -0.08996
                       0.99463                       0.03192                      -0.09846
                       0.99394                       0.02875                      -0.10613
                       0.99322                       0.02702                      -0.11302
                       0.99250                       0.02640                      -0.11939
                       0.99178                       0.02572                      -0.12532
                       0.99113                       0.02368                      -0.13079
                       0.99052                       0.02035                      -0.13584
                       0.98995                       0.01576                      -0.14053
                       0.98939                       0.01041                      -0.14493
                       0.98879                       0.00663                      -0.14917
                       0.98818                       0.00480                      -0.15319
                       0.98760                       0.00328                      -0.15694
                       0.98705                       0.00086                      -0.16039
                       0.98652                      -0.00308                      -0.16363
                       0.98596                      -0.00844                      -0.16675
                       0.98536                      -0.01509                      -0.16983
                       0.98465                      -0.02276                      -0.17306
                       0.98382                      -0.02987                      -0.17668
                       0.98283                      -0.03552                      -0.18104
                       0.98165                      -0.04114                      -0.18618
                       0.98039                      -0.04719                      -0.19132
                       0.97912                      -0.05361                      -0.19610
                       0.97790                      -0.06046                      -0.20012
                       0.97684                      -0.06733                      -0.20310
                       0.97618                      -0.07388                      -0.20397
                       0.97578                      -0.07962                      -0.20377
                       0.97551                      -0.08454                      -0.20306
                       0.97536                      -0.08915                      -0.20183
                       0.97532                      -0.09337                      -0.20007
                       0.97545                      -0.09697                      -0.19772
                       0.97577                      -0.10012                      -0.19454
                       0.97633                      -0.10207                      -0.19070
                       0.97699                      -0.10441                      -0.18598
        </DataArray>
        <DataArray type="Float32" Name="OrientationY" NumberOfComponents="3" format="ascii">
                       0.09934                      -0.03135                      -0.99456
                       0.09922                      -0.03118                      -0.99458
                       0.09609                      -0.03053                      -0.99490
                       0.08801                      -0.03022                      -0.99566
                       0.07603                      -0.03102                      -0.99662
                       0.06111                      -0.03270                      -0.99760
                       0.04424                      -0.03500                      -0.99841
                       0.02644                      -0.03745                      -0.99895
                       0.00865                      -0.03919                      -0.99919
                      -0.00819                      -0.04030                      -0.99915
                      -0.02302                      -0.04141                      -0.99888
                      -0.03550                      -0.04271                      -0.99846
                      -0.04663                      -0.04403                      -0.99794
                      -0.05773                      -0.04518                      -0.99731
                      -0.06845                      -0.04618                      -0.99659
                      -0.07865                      -0.04712                      -0.99579
                      -0.08818                      -0.04799                      -0.99495
                      -0.09684                      -0.04876                      -0.99410
                      -0.10463                      -0.04936                      -0.99329
                      -0.11159                      -0.04982                      -0.99250
                      -0.11797                      -0.05020                      -0.99175
                      -0.12391                      -0.05057                      -0.99100
                      -0.12946                      -0.05100                      -0.99027
                      -0.13465                      -0.05147                      -0.98956
                      -0.13954                      -0.05196                      -0.98885
                      -0.14420                      -0.05246                      -0.98816
                      -0.14862                      -0.05289                      -0.98748
                      -0.15273                      -0.05330                      -0.98683
                      -0.15654                      -0.05372                      -0.98621
                      -0.16011                      -0.05419                      -0.98561
                      -0.16355                      -0.05469                      -0.98502
                      -0.16696                      -0.05522                      -0.98442
                      -0.17042                      -0.05576                      -0.98379
                      -0.17409                      -0.05630                      -0.98312
                      -0.17814                      -0.05683                      -0.98236
                      -0.18286                      -0.05736                      -0.98146
                      -0.18837                      -0.05786                      -0.98039
                      -0.19391                      -0.05836                      -0.97928
                      -0.19914                      -0.05885                      -0.97820
                      -0.20365                      -0.05934                      -0.97724
                      -0.20715                      -0.05986                      -0.97648
                      -0.20854                      -0.06050                      -0.97614
                      -0.20882                      -0.06121                      -0.97604
                      -0.20854                      -0.06194                      -0.97605
                      -0.20772                      -0.06266                      -0.97618
                      -0.20636                      -0.06334                      -0.97642
                      -0.20436                      -0.06399                      -0.97680
                      -0.20149                      -0.06460                      -0.97736
                      -0.19785                      -0.06514                      -0.97806
                      -0.19336                      -0.06564                      -0.97893
        </DataArray>
        <DataArray type="Float32" Name="OrientationZ" NumberOfComponents="3" format="ascii">
                      -0.06867                       0.99691                      -0.03828
                      -0.06975                       0.99683                      -0.03821
                      -0.07336                       0.99659                      -0.03766
                      -0.07711                       0.99633                      -0.03706
                      -0.07790                       0.99628                      -0.03695
                      -0.07595                       0.99641                      -0.03732
                      -0.07159                       0.99671                      -0.03811
                      -0.06600                       0.99705                      -0.03913
                      -0.06322                       0.99721                      -0.03966
                      -0.06339                       0.99720                      -0.03970
                      -0.06272                       0.99723                      -0.03990
                      -0.05964                       0.99740                      -0.04054
                      -0.05517                       0.99762                      -0.04144
                      -0.05139                       0.99779                      -0.04223
                      -0.04805                       0.99792                      -0.04294
                      -0.04442                       0.99806                      -0.04372
                      -0.04042                       0.99819                      -0.04457