<?xml version="1.0"?>
<VTKFile type="PolyData" version="0.1" byte_order="LittleEndian">
  <PolyData>
    <Piece NumberOfPoints="     50" NumberOfVerts="  0" NumberOfLines="     49"
           NumberOfStrips="  0" NumberOfPolys="      0">
      <Points>
        <DataArray type="Float32" NumberOfComponents="3" format="ascii">
                       2.92957                      -3.08502                     147.01182
                       2.47896                      -4.45716                     145.10857
                       2.01968                      -5.79907                     143.18707
                       1.53929                      -7.08114                     141.23049
                       1.04739                      -8.32264                     139.24949
                       0.55304                      -9.54184                     137.25422
                       0.06497                     -10.75900                     135.25620
                      -0.40779                     -12.00250                     133.27237
                      -0.86322                     -13.28446                     131.31039
                      -1.32137                     -14.55943                     129.34460
                      -1.78178                     -15.83358                     127.37898
                      -2.23855                     -17.11960                     125.42057
                      -2.68241                     -18.43346                     123.47779
                      -3.11566                     -19.76318                     121.54320
                      -3.54396                     -21.08794                     119.60423
                      -3.96676                     -22.40742                     117.66055
                      -4.38325                     -23.72319                     115.71307
                      -4.79246                     -25.03527                     113.76161
                      -5.19582                     -26.34541                     111.80764
                      -5.59727                     -27.65458                     109.85258
                      -5.99956                     -28.96318                     107.89714
                      -6.40537                     -30.27092                     105.94153
                      -6.81222                     -31.57694                     103.98453
                      -7.21663                     -32.88059                     102.02496
                      -7.61642                     -34.18213                     100.06251
                      -8.00832                     -35.48136                      98.09647
                      -8.39249                     -36.77819                      96.12675
                      -8.77649                     -38.07277                      94.15458
                      -9.16207                     -39.36644                      92.18087
                      -9.54925                     -40.65882                      90.20516
                      -9.93411                     -41.95006                      88.22676
                     -10.31381                     -43.24026                      86.24521
                     -10.68479                     -44.52980                      84.26023
                     -11.04477                     -45.81888                      82.27162
                     -11.39151                     -47.10752                      80.27920
                     -11.73023                     -48.39624                      78.28384
                     -12.06294                     -49.68530                      76.28585
                     -12.38810                     -50.97506                      74.28526
                     -12.70523                     -52.26580                      72.28221
                     -13.01288                     -53.55775                      70.27679
                     -13.31019                     -54.85021                      68.26861
                     -13.59767                     -56.14289                      66.25770
                     -13.87546                     -57.43557                      64.24413
                     -14.14659                     -58.72888                      62.22871
                     -14.41119                     -60.02294                      60.21183
                     -14.66981                     -61.31784                      58.19392
                     -14.92299                     -62.61327                      56.17531
                     -15.17223                     -63.90875                      54.15630
                     -15.41707                     -65.20435                      52.13764
                     -15.64620                     -66.61996                      50.19450
        </DataArray>
      </Points>
      <PointData>
        <DataArray type="Float32" Name="TranslationalVelocity" NumberOfComponents="3" format="ascii">
                      -1.19200                       2.00474                      -1.21905
                      -1.31024                       3.13627                      -2.00684
                      -1.42530                       4.27900                      -2.77737
                      -1.53411                       5.44367                      -3.51381
                      -1.63862                       6.62317                      -4.22704
                      -1.74072                       7.81075                      -4.92743
                      -1.84248                       8.99891                      -5.62641
                      -1.94683                      10.17708                      -6.34011
                      -2.05501                      11.34068                      -7.07537
                      -2.16236                      12.50630                      -7.80643
                      -2.26953                      13.67161                      -8.53680
                      -2.37783                      14.83201                      -9.27365
                      -2.48889                      15.98183                     -10.02598
                      -2.60150                      17.12553                     -10.78697
                      -2.71351                      18.27085                     -11.54483
                      -2.82490                      19.41790                     -12.29937
                      -2.93586                      20.56613                     -13.05149
                      -3.04639                      21.71553                     -13.80120
                      -3.15668                      22.86543                     -14.54950
                      -3.26687                      24.01540                     -15.29699
                      -3.37700                      25.16533                     -16.04393
                      -3.48706                      26.31537                     -16.79019
                      -3.59697                      27.46597                     -17.53525
                      -3.70666                      28.61745                     -18.27870
                      -3.81618                      29.76980                     -19.02068
                      -3.92550                      30.92309                     -19.76106
                      -4.03464                      32.07739                     -20.49976
                      -4.14362                      33.23272                     -21.23695
                      -4.25260                      34.38872                     -21.97337
                      -4.36156                      35.54565                     -22.70880
                      -4.47050                      36.70351                     -23.44329
                      -4.57945                      37.86225                     -24.17685
                      -4.68846                      39.02169                     -24.90965
                      -4.79755                      40.18168                     -25.64178
                      -4.90673                      41.34211                     -26.37322
                      -5.01609                      42.50296                     -27.10429
                      -5.12565                      43.66424                     -27.83514
                      -5.23547                      44.82577                     -28.56596
                      -5.34558                      45.98742                     -29.29688
                      -5.45601                      47.14899                     -30.02803
                      -5.56670                      48.31061                     -30.75900
                      -5.67764                      49.47233                     -31.48964
                      -5.78880                      50.63412                     -32.21985
                      -5.90025                      51.79586                     -32.95000
                      -6.01200                      52.95738                     -33.68023
                      -6.12407                      54.11852                     -34.41059
                      -6.23641                      55.27922                     -35.14099
                      -6.34897                      56.43954                     -35.87122
                      -6.46175                      57.59911                     -36.60139
                      -6.58691                      58.71465                     -37.39899
        </DataArray>
        <DataArray type="Float32" Name="RotationalVelocity" NumberOfComponents="3" format="ascii">
                       0.57130                      -0.00864                      -0.09817
                       0.57127                      -0.00865                      -0.09815
                       0.57121                      -0.00867                      -0.09813
                       0.57111                      -0.00869                      -0.09809
                       0.57098                      -0.00871                      -0.09804
                       0.57083                      -0.00874                      -0.09799
                       0.57066                      -0.00876                      -0.09793
                       0.57048                      -0.00878                      -0.09786
                       0.57028                      -0.00880                      -0.09780
                       0.57008                      -0.00882                      -0.09774
                       0.56988                      -0.00883                      -0.09768
                       0.56967                      -0.00884                      -0.09762
                       0.56947                      -0.00884                      -0.09756
                       0.56927                      -0.00884                      -0.09751
                       0.56907                      -0.00884                      -0.09746
                       0.56888                      -0.00884                      -0.09742
                       0.56869                      -0.00883                      -0.09737
                       0.56851                      -0.00882                      -0.09734
                       0.56833                      -0.00880                      -0.09730
                       0.56816                      -0.00878                      -0.09727
                       0.56799                      -0.00876                      -0.09724
                       0.56783                      -0.00873                      -0.09722
                       0.56767                      -0.00870                      -0.09720
                       0.56750                      -0.00866                      -0.09718
                       0.56734                      -0.00862                      -0.09717
                       0.56717                      -0.00858                      -0.09715
                       0.56701                      -0.00853                      -0.09714
                       0.56683                      -0.00848                      -0.09714
                       0.56666                      -0.00842                      -0.09713
                       0.56647                      -0.00835                      -0.09712
                       0.56628                      -0.00829                      -0.09712
                       0.56608                      -0.00821                      -0.09712
                       0.56588                      -0.00814                      -0.09712
                       0.56566                      -0.00805                      -0.09712
                       0.56544                      -0.00797                      -0.09712
                       0.56521                      -0.00787                      -0.09713
                       0.56498                      -0.00778                      -0.09713
                       0.56474                      -0.00768                      -0.09714
                       0.56449                      -0.00757                      -0.09715
                       0.56425                      -0.00747                      -0.09716
                       0.56401                      -0.00736                      -0.09717
                       0.56377                      -0.00725                      -0.09718
                       0.56355                      -0.00714                      -0.09720
                       0.56334                      -0.00703                      -0.09722
                       0.56315                      -0.00693                      -0.09724
                       0.56298                      -0.00684                      -0.09726
                       0.56285                      -0.00675                      -0.09729
                       0.56276                      -0.00667                      -0.09732
                       0.56272                      -0.00660                      -0.09735
                       0.56272                      -0.00653                      -0.09740
        </DataArray>
        <DataArray type="Float32" Name="TranslationalAcceleration" NumberOfComponents="3" format="ascii">
                       0.28806                       0.87584                       0.98100
                       0.40711                       1.41328                       1.57151
                       0.52753                       1.94056                       2.17002
                       0.65039                       2.44762                       2.78421
                       0.77523                       2.93976                       3.40940
                       0.90158                       3.42212                       4.04116
                       1.02885                       3.90059                       4.67457
                       1.15623                       4.38379                       5.30275
                       1.28338                       4.87539                       5.92298
                       1.41151                       5.36089                       6.54637
                       1.54035                       5.84214                       7.17146
                       1.66951                       6.32319                       7.79533
                       1.79851                       6.80921                       8.41443
                       1.92760                       7.29652                       9.03174
                       2.05722                       7.77854                       9.65219
                       2.18725                       8.25524                      10.27580
                       2.31753                       8.72724                      10.90216
                       2.44793                       9.19463                      11.53122
                       2.57827                       9.65807                      12.16252
                       2.70838                      10.11794                      12.79575
                       2.83813                      10.57445                      13.43082
                       2.96739                      11.02755                      14.06782
                       3.09604                      11.47703                      14.70701
                       3.22396                      11.92273                      15.34860
                       3.35100                      12.36473                      15.99259
                       3.47700                      12.80302                      16.63904
                       3.60182                      13.23751                      17.28802
                       3.72528                      13.66812                      17.93966
                       3.84721                      14.09521                      18.59383
                       3.96746                      14.51856                      19.25080
                       4.08585                      14.93809                      19.91066
                       4.20221                      15.35373                      20.57349
                       4.31634                      15.76545                      21.23927
                       4.42807                      16.17316                      21.90803
                       4.53720                      16.57672                      22.57978
                       4.64358                      16.97613                      23.25466
                       4.74707                      17.37134                      23.93280
                       4.84748                      17.76238                      24.61419
                       4.94467                      18.14924                      25.29879
                       5.03850                      18.53198                      25.98652
                       5.12885                      18.91036                      26.67739
                       5.21567                      19.28432                      27.37138
                       5.29890                      19.65393                      28.06833
                       5.37856                      20.01961                      28.76807
                       5.45468                      20.38174                      29.47026
                       5.52734                      20.74078                      30.17451
                       5.59666                      21.09719                      30.88036
                       5.66284                      21.45156                      31.58733
                       5.72610                      21.80480                      32.29455
                       5.78517                      22.19961                      32.98069
        </DataArray>
        <DataArray type="Float32" Name="OrientationX" NumberOfComponents="3" format="ascii">
                       0.90737                       0.21631                      -0.36041
                       0.90722                       0.21567                      -0.36116
                       0.90768                       0.21122                      -0.36265
                       0.90987                       0.20258                      -0.36206
                       0.91398                       0.19224                      -0.35734
                       0.91949                       0.18086                      -0.34904
                       0.92589                       0.16908                      -0.33784
                       0.93252                       0.15715                      -0.32514
                       0.93827                       0.14366                      -0.31467
                       0.94287                       0.12931                      -0.30704
                       0.94684                       0.11700                      -0.29968
                       0.95047                       0.10791                      -0.29148
                       0.95389                       0.10066                      -0.28278
                       0.95703                       0.09302                      -0.27467
                       0.95987                       0.08543                      -0.26712
                       0.96253                       0.07840                      -0.25959
                       0.96501                       0.07209                      -0.25212
                       0.96720                       0.06642                      -0.24520
                       0.96894                       0.06081                      -0.23972
                       0.97022                       0.05510                      -0.23587
                       0.97117                       0.04924                      -0.23326
                       0.97200                       0.04375                      -0.23088
                       0.97296                       0.03930                      -0.22762
                       0.97404                       0.03580                      -0.22354
                       0.97524                       0.03320                      -0.21864
                       0.97649                       0.03116                      -0.21329
                       0.97741                       0.02842                      -0.20943
                       0.97794                       0.02485                      -0.20742
                       0.97834                       0.02131                      -0.20590
                       0.97883                       0.01843                      -0.20382
                       0.97953                       0.01642                      -0.20064
                       0.98041                       0.01516                      -0.19637
                       0.98146                       0.01450                      -0.19109
                       0.98265                       0.01416                      -0.18492
                       0.98374                       0.01314                      -0.17910
                       0.98465                       0.01070                      -0.17422
                       0.98558                       0.00752                      -0.16902
                       0.98654                       0.00450                      -0.16348
                       0.98747                       0.00195                      -0.15780
                       0.98836                       0.00027                      -0.15211
                       0.98915                      -0.00051                      -0.14691
                       0.98973                       0.00046                      -0.14298
                       0.99012                       0.00202                      -0.14024
                       0.99037                       0.00368                      -0.13839
                       0.99056                       0.00571                      -0.13698
                       0.99067                       0.00809                      -0.13605
                       0.99068                       0.01079                      -0.13581
                       0.99058                       0.01413                      -0.13621
                       0.99031                       0.01761                      -0.13778
                       0.99001                       0.02217                      -0.13927
        </DataArray>
        <DataArray type="Float32" Name="OrientationY" NumberOfComponents="3" format="ascii">
                       0.37384                      -0.80728                       0.45666
                       0.37367                      -0.80747                       0.45646
                       0.37065                      -0.80875                       0.45666
                       0.36305                      -0.81115                       0.45851
                       0.35193                      -0.81390                       0.46230
                       0.33813                      -0.81675                       0.46753
                       0.32249                      -0.81954                       0.47366
                       0.30592                      -0.82220                       0.48000
                       0.28917                      -0.82498                       0.48558
                       0.27315                      -0.82768                       0.49023
                       0.25898                      -0.82984                       0.49427
                       0.24704                      -0.83137                       0.49778
                       0.23637                      -0.83257                       0.50095
                       0.22567                      -0.83375                       0.50392
                       0.21530                      -0.83484                       0.50664
                       0.20540                      -0.83580                       0.50917
                       0.19612                      -0.83662                       0.51147
                       0.18767                      -0.83733                       0.51347
                       0.18003                      -0.83798                       0.51514
                       0.17319                      -0.83859                       0.51651
                       0.16689                      -0.83914                       0.51768
                       0.16102                      -0.83963                       0.51875
                       0.15553                      -0.84002                       0.51979
                       0.15040                      -0.84034                       0.52078
                       0.14558                      -0.84060                       0.52172
                       0.14098                      -0.84084                       0.52261
                       0.13660                      -0.84107                       0.52339
                       0.13253                      -0.84130                       0.52407
                       0.12875                      -0.84150                       0.52468
                       0.12522                      -0.84168                       0.52526
                       0.12182                      -0.84182                       0.52583
                       0.11845                      -0.84195                       0.52639
                       0.11504                      -0.84208                       0.52695
                       0.11141                      -0.84220                       0.52753
                       0.10741                      -0.84233                       0.52816
                       0.10274                      -0.84244                       0.52890
                       0.09728                      -0.84254                       0.52977
                       0.09177                      -0.84262                       0.53063
                       0.08658                      -0.84268                       0.53140
                       0.08211                      -0.84273                       0.53203
                       0.07865                      -0.84277                       0.53249
                       0.07734                      -0.84281                       0.53263
                       0.07716                      -0.84283                       0.53262
                       0.07755                      -0.84283                       0.53256
                       0.07849                      -0.84283                       0.53243
                       0.07998                      -0.84281                       0.53223
                       0.08211                      -0.84278                       0.53196
                       0.08512                      -0.84272                       0.53158
                       0.08888                      -0.84262                       0.53112
                       0.09350                      -0.84250                       0.53052
        </DataArray>
        <DataArray type="Float32" Name="OrientationZ" NumberOfComponents="3" format="ascii">
                      -0.19217                      -0.54909                      -0.81337
                      -0.19318                      -0.54907                      -0.81315
                      -0.19684                      -0.54891                      -0.81237
                      -0.20080                      -0.54863                      -0.81159
                      -0.20197                      -0.54829                      -0.81154
                      -0.20053                      -0.54791                      -0.81215
                      -0.19679                      -0.54751                      -0.81333
                      -0.19190                      -0.54708                      -0.81479
                      -0.18984                      -0.54660                      -0.81559
                      -0.19075                      -0.54609                      -0.81572
                      -0.19086                      -0.54560                      -0.81602
                      -0.18861                      -0.54514                      -0.81685
                      -0.18501                      -0.54469                      -0.81798
                      -0.18213                      -0.54425                      -0.81892
                      -0.17972                      -0.54382                      -0.81973
                      -0.17705                      -0.54341                      -0.82058
                      -0.17405                      -0.54302                      -0.82148