<?xml version="1.0"?>
<VTKFile type="PolyData" version="0.1" byte_order="LittleEndian">
  <PolyData>
    <Piece NumberOfPoints="      3" NumberOfVerts="  0" NumberOfLines="      2"
           NumberOfStrips="  0" NumberOfPolys="      0">
      <Points>
        <DataArray type="Float32" NumberOfComponents="3" format="ascii">
                      30.21058                      -0.16193                     147.83503
                      30.21094                      -0.16196                     147.84002
                      30.21021                      -0.16191                     147.83005
        </DataArray>
      </Points>
      <PointData>
        <DataArray type="Float32" Name="TranslationalVelocity" NumberOfComponents="3" format="ascii">
                       0.22738                       0.08104                       0.05699
                       0.22738                       0.08104                       0.05699
                       0.22738                       0.08103                       0.05699
        </DataArray>
        <DataArray type="Float32" Name="RotationalVelocity" NumberOfComponents="3" format="ascii">
                      -0.00059                      -0.00044                      -0.00003
                      -0.00059                      -0.00044                      -0.00003
                      -0.00059                      -0.00044                      -0.00003
        </DataArray>
        <DataArray type="Float32" Name="TranslationalAcceleration" NumberOfComponents="3" format="ascii">
                      -0.00087                      -0.01421                      -0.00402
                      -0.00087                      -0.01421                      -0.00402
                      -0.00087                      -0.01421                      -0.00402
        </DataArray>
        <DataArray type="Float32" Name="RotationalAcceleration" NumberOfComponents="3" format="ascii">
                      -0.00005                      -0.00012                      -0.00074
                      -0.00005                      -0.00012                      -0.00074
                      -0.00005                      -0.00012                      -0.00074
        </DataArray>
        <DataArray type="Float32" Name="OrientationX" NumberOfComponents="3" format="ascii">
                       0.99727                       0.00715                      -0.07346
                       0.99727                       0.00715                      -0.07346
                       0.99727                       0.00715                      -0.07346
        </DataArray>
        <DataArray type="Float32" Name="OrientationY" NumberOfComponents="3" format="ascii">
                      -0.00681                       0.99997                       0.00485
                      -0.00681                       0.99997                       0.00485
                      -0.00681                       0.99997                       0.00485
        </DataArray>
        <DataArray type="Float32" Name="OrientationZ" NumberOfComponents="3" format="ascii">
                       0.07350                      -0.00434                       0.99729
                       0.07350                      -0.00434                       0.99729
                       0.07350                      -0.00434                       0.99729
        </DataArray>
      </PointData>
      <Lines>
        <DataArray type="Int32" Name="connectivity" format="ascii">
      0      1
      2      0
        </DataArray>
        <DataArray type="Int32" Name="offsets" format="ascii">
      2
      4
        </DataArray>
      </Lines>
    </Piece>
  </PolyData>
</VTKFile>
