<?xml version="1.0"?>
<VTKFile type="PolyData" version="0.1" byte_order="LittleEndian">
  <PolyData>
    <Piece NumberOfPoints="      3" NumberOfVerts="  0" NumberOfLines="      2"
           NumberOfStrips="  0" NumberOfPolys="      0">
      <Points>
        <DataArray type="Float32" NumberOfComponents="3" format="ascii">
                      32.17623                      -0.89408                     147.86374
                      32.17661                      -0.89413                     147.86873
                      32.17585                      -0.89404                     147.85876
        </DataArray>
      </Points>
      <PointData>
        <DataArray type="Float32" Name="TranslationalVelocity" NumberOfComponents="3" format="ascii">
                      -0.18751                       0.03999                      -0.03765
                      -0.18751                       0.03999                      -0.03765
                      -0.18750                       0.03999                      -0.03765
        </DataArray>
        <DataArray type="Float32" Name="RotationalVelocity" NumberOfComponents="3" format="ascii">
                      -0.00022                      -0.00020                       0.00013
                      -0.00022                      -0.00020                       0.00013
                      -0.00022                      -0.00020                       0.00013
        </DataArray>
        <DataArray type="Float32" Name="TranslationalAcceleration" NumberOfComponents="3" format="ascii">
                      -0.00858                       0.01674                      -0.00761
                      -0.00858                       0.01675                      -0.00761
                      -0.00858                       0.01674                      -0.00761
        </DataArray>
        <DataArray type="Float32" Name="RotationalAcceleration" NumberOfComponents="3" format="ascii">
                      -0.00026                      -0.00039                      -0.00073
                      -0.00026                      -0.00039                      -0.00073
                      -0.00026                      -0.00039                      -0.00073
        </DataArray>
        <DataArray type="Float32" Name="OrientationX" NumberOfComponents="3" format="ascii">
                       0.99715                       0.00418                      -0.07533
                       0.99715                       0.00418                      -0.07533
                       0.99715                       0.00418                      -0.07533
        </DataArray>
        <DataArray type="Float32" Name="OrientationY" NumberOfComponents="3" format="ascii">
                      -0.00350                       0.99995                       0.00928
                      -0.00350                       0.99995                       0.00928
                      -0.00350                       0.99995                       0.00928
        </DataArray>
        <DataArray type="Float32" Name="OrientationZ" NumberOfComponents="3" format="ascii">
                       0.07537                      -0.00899                       0.99712
                       0.07537                      -0.00899                       0.99712
                       0.07537                      -0.00899                       0.99712
        </DataArray>
      </PointData>
      <Lines>
        <DataArray type="Int32" Name="connectivity" format="ascii">
      0      1
      2      0
        </DataArray>
        <DataArray type="Int32" Name="offsets" format="ascii">
      2
      4
        </DataArray>
      </Lines>
    </Piece>
  </PolyData>
</VTKFile>
