<?xml version="1.0"?>
<VTKFile type="PolyData" version="0.1" byte_order="LittleEndian">
  <PolyData>
    <Piece NumberOfPoints="     50" NumberOfVerts="  0" NumberOfLines="     49"
           NumberOfStrips="  0" NumberOfPolys="      0">
      <Points>
        <DataArray type="Float32" NumberOfComponents="3" format="ascii">
                      16.65382                      -1.03231                     154.02699
                      16.95905                      -1.07958                     156.39611
                      17.25840                      -1.16258                     158.76408
                      17.54240                      -1.31615                     161.13016
                      17.81930                      -1.51762                     163.49452
                      18.09683                      -1.74541                     165.85733
                      18.38215                      -1.97563                     168.21893
                      18.68193                      -2.17461                     170.58022
                      18.99721                      -2.32788                     172.94179
                      19.31211                      -2.48899                     175.30279
                      19.62667                      -2.65059                     177.66363
                      19.94581                      -2.79775                     180.02454
                      20.27758                      -2.91179                     182.38547
                      20.62090                      -3.00694                     184.74575
                      20.97210                      -3.10786                     187.10452
                      21.33189                      -3.21497                     189.46161
                      21.70106                      -3.32639                     191.81698
                      22.08068                      -3.44214                     194.17043
                      22.46929                      -3.56008                     196.52227
                      22.86297                      -3.67899                     198.87326
                      23.25911                      -3.79842                     201.22395
                      23.65525                      -3.91874                     203.57491
                      24.05419                      -4.04111                     205.92570
                      24.45968                      -4.16641                     208.27570
                      24.87410                      -4.29440                     210.62453
                      25.30088                      -4.42533                     212.97149
                      25.74009                      -4.55932                     215.31659
                      26.18452                      -4.69624                     217.66148
                      26.63264                      -4.83464                     220.00682
                      27.08477                      -4.97508                     222.35276
                      27.54505                      -5.11741                     224.69851
                      28.01655                      -5.26151                     227.04349
                      28.50298                      -5.40686                     229.38685
                      29.00676                      -5.55314                     231.72796
                      29.53025                      -5.70019                     234.06609
                      30.06854                      -5.84751                     236.40262
                      30.61989                      -5.99490                     238.73811
                      31.18588                      -6.14180                     241.07210
                      31.76708                      -6.28783                     243.40440
                      32.36490                      -6.43255                     245.73445
                      32.98022                      -6.57663                     248.06171
                      33.61248                      -6.72034                     250.38608
                      34.26141                      -6.86381                     252.70732
                      34.92386                      -7.00643                     255.02620
                      35.59937                      -7.14792                     257.34249
                      36.28695                      -7.28809                     259.65604
                      36.98556                      -7.42719                     261.96657
                      37.69311                      -7.56567                     264.27410
                      38.40912                      -7.70318                     266.57791
                      39.13335                      -7.69822                     268.88692
        </DataArray>
      </Points>
      <PointData>
        <DataArray type="Float32" Name="TranslationalVelocity" NumberOfComponents="3" format="ascii">
                      -0.24707                      -3.05393                      -0.11762
                      -0.24706                      -4.86279                      -0.15371
                      -0.25192                      -6.67019                      -0.21645
                      -0.26642                      -8.47446                      -0.33180
                      -0.28746                     -10.27703                      -0.48293
                      -0.31209                     -12.07918                      -0.65380
                      -0.33702                     -13.88225                      -0.82663
                      -0.35762                     -15.68790                      -0.97628
                      -0.37188                     -17.49676                      -1.09192
                      -0.38706                     -19.30606                      -1.21351
                      -0.40214                     -21.11614                      -1.33558
                      -0.41503                     -22.92785                      -1.44696
                      -0.42315                     -24.74223                      -1.53365
                      -0.42840                     -26.55864                      -1.60629
                      -0.43415                     -28.37591                      -1.68336
                      -0.44042                     -30.19398                      -1.76517
                      -0.44696                     -32.01290                      -1.85034
                      -0.45375                     -33.83264                      -1.93887
                      -0.46049                     -35.65321                      -2.02918
                      -0.46700                     -37.47460                      -2.12033
                      -0.47323                     -39.29686                      -2.21197
                      -0.47923                     -41.12005                      -2.30435
                      -0.48517                     -42.94423                      -2.39838
                      -0.49118                     -44.76942                      -2.49473
                      -0.49726                     -46.59565                      -2.59322
                      -0.50346                     -48.42289                      -2.69406
                      -0.50982                     -50.25113                      -2.79736
                      -0.51635                     -52.08066                      -2.90297
                      -0.52285                     -53.91178                      -3.00980
                      -0.52944                     -55.74468                      -3.11826
                      -0.53614                     -57.57937                      -3.22827
                      -0.54297                     -59.41584                      -3.33976
                      -0.54988                     -61.25402                      -3.45235
                      -0.55689                     -63.09379                      -3.56582
                      -0.56399                     -64.93497                      -3.68005
                      -0.57116                     -66.77797                      -3.79465
                      -0.57840                     -68.62299                      -3.90945
                      -0.58565                     -70.46996                      -4.02402
                      -0.59290                     -72.31881                      -4.13809
                      -0.60012                     -74.16935                      -4.25131
                      -0.60743                     -76.02128                      -4.36419
                      -0.61489                     -77.87445                      -4.47693
                      -0.62255                     -79.72858                      -4.58962
                      -0.63035                     -81.58379                      -4.70176
                      -0.63826                     -83.43976                      -4.81312
                      -0.64627                     -85.29612                      -4.92354
                      -0.65443                     -87.15237                      -5.03318
                      -0.66280                     -89.00806                      -5.14235
                      -0.67133                     -90.86233                      -5.25077
                      -0.66043                     -92.72170                      -5.25068
        </DataArray>
        <DataArray type="Float32" Name="RotationalVelocity" NumberOfComponents="3" format="ascii">
                       0.74592                       0.00272                      -0.13642
                       0.74598                       0.00273                      -0.13643
                       0.74610                       0.00273                      -0.13644
                       0.74629                       0.00273                      -0.13647
                       0.74654                       0.00273                      -0.13649
                       0.74684                       0.00275                      -0.13653
                       0.74717                       0.00277                      -0.13656
                       0.74753                       0.00281                      -0.13660
                       0.74791                       0.00287                      -0.13664
                       0.74830                       0.00294                      -0.13668
                       0.74870                       0.00302                      -0.13672
                       0.74909                       0.00312                      -0.13676
                       0.74948                       0.00324                      -0.13680
                       0.74987                       0.00336                      -0.13683
                       0.75024                       0.00349                      -0.13687
                       0.75060                       0.00363                      -0.13690
                       0.75096                       0.00378                      -0.13693
                       0.75130                       0.00393                      -0.13696
                       0.75162                       0.00408                      -0.13699
                       0.75194                       0.00424                      -0.13702
                       0.75225                       0.00439                      -0.13705
                       0.75255                       0.00454                      -0.13707
                       0.75285                       0.00468                      -0.13710
                       0.75314                       0.00481                      -0.13712
                       0.75343                       0.00494                      -0.13715
                       0.75372                       0.00506                      -0.13718
                       0.75401                       0.00517                      -0.13720
                       0.75431                       0.00527                      -0.13723
                       0.75462                       0.00535                      -0.13726
                       0.75493                       0.00542                      -0.13729
                       0.75526                       0.00548                      -0.13733
                       0.75560                       0.00552                      -0.13736
                       0.75595                       0.00555                      -0.13740
                       0.75632                       0.00557                      -0.13744
                       0.75670                       0.00557                      -0.13748
                       0.75709                       0.00555                      -0.13753
                       0.75749                       0.00553                      -0.13757
                       0.75790                       0.00549                      -0.13762
                       0.75831                       0.00544                      -0.13767
                       0.75873                       0.00538                      -0.13772
                       0.75914                       0.00531                      -0.13777
                       0.75955                       0.00523                      -0.13782
                       0.75993                       0.00514                      -0.13787
                       0.76029                       0.00504                      -0.13791
                       0.76062                       0.00493                      -0.13795
                       0.76089                       0.00482                      -0.13799
                       0.76111                       0.00471                      -0.13802
                       0.76126                       0.00459                      -0.13804
                       0.76132                       0.00448                      -0.13805
                       0.76131                       0.00437                      -0.13806
        </DataArray>
        <DataArray type="Float32" Name="TranslationalAcceleration" NumberOfComponents="3" format="ascii">
                      -0.39178                       0.15878                      -2.24660
                      -0.63844                       0.18853                      -3.59587
                      -0.88500                       0.23884                      -4.94413
                      -1.13137                       0.32975                      -6.29024
                      -1.37772                       0.44834                      -7.63539
                      -1.62421                       0.58226                      -8.98067
                      -1.87100                       0.71782                     -10.32718
                      -2.11827                       0.83560                     -11.67627
                      -2.36609                       0.92722                     -13.02849
                      -2.61421                       1.02353                     -14.38169
                      -2.86269                       1.12031                     -15.73616
                      -3.11161                       1.20889                     -17.09255
                      -3.36106                       1.27843                     -18.45169
                      -3.61101                       1.33712                     -19.81307
                      -3.86134                       1.39927                     -21.17573
                      -4.11206                       1.46513                     -22.53962
                      -4.36317                       1.53361                     -23.90475
                      -4.61467                       1.60473                     -25.27108
                      -4.86656                       1.67726                     -26.63859
                      -5.11883                       1.75048                     -28.00728
                      -5.37149                       1.82410                     -29.37714
                      -5.62455                       1.89834                     -30.74823
                      -5.87804                       1.97390                     -32.12056
                      -6.13194                       2.05131                     -33.49414
                      -6.38629                       2.13044                     -34.86898
                      -6.64107                       2.21146                     -36.24505
                      -6.89629                       2.29445                     -37.62235
                      -7.15200                       2.37932                     -39.00112
                      -7.40825                       2.46522                     -40.38160
                      -7.66507                       2.55249                     -41.76395
                      -7.92248                       2.64108                     -43.14819
                      -8.18048                       2.73092                     -44.53434
                      -8.43906                       2.82174                     -45.92235
                      -8.69823                       2.91337                     -47.31217
                      -8.95795                       3.00573                     -48.70368
                      -9.21829                       3.09851                     -50.09721
                      -9.47930                       3.19158                     -51.49296
                      -9.74096                       3.28463                     -52.89089
                     -10.00327                       3.37742                     -54.29096
                     -10.26619                       3.46969                     -55.69303
                     -10.52969                       3.56184                     -57.09688
                     -10.79375                       3.65401                     -58.50237
                     -11.05830                       3.74627                     -59.90928
                     -11.32336                       3.83821                     -61.31765
                     -11.58886                       3.92965                     -62.72720
                     -11.85471                       4.02045                     -64.13754
                     -12.12082                       4.11071                     -65.54822
                     -12.38707                       4.20065                     -66.95873
                     -12.65329                       4.29002                     -68.36827
                     -12.91985                       4.29409                     -69.78201
        </DataArray>
        <DataArray type="Float32" Name="OrientationX" NumberOfComponents="3" format="ascii">
                       0.94497                      -0.29753                      -0.13606
                       0.94513                      -0.29747                      -0.13502
                       0.94650                      -0.29470                      -0.13152
                       0.94931                      -0.28717                      -0.12782
                       0.95283                      -0.27566                      -0.12696
                       0.95669                      -0.26110                      -0.12873
                       0.96053                      -0.24443                      -0.13283
                       0.96412                      -0.22672                      -0.13812
                       0.96772                      -0.20916                      -0.14063
                       0.97120                      -0.19265                      -0.14021
                       0.97393                      -0.17800                      -0.14065
                       0.97571                      -0.16549                      -0.14353
                       0.97692                      -0.15420                      -0.14785
                       0.97807                      -0.14295                      -0.15146
                       0.97910                      -0.13210                      -0.15463
                       0.97989                      -0.12172                      -0.15811
                       0.98042                      -0.11197                      -0.16196
                       0.98077                      -0.10309                      -0.16572
                       0.98112                      -0.09513                      -0.16836
                       0.98156                      -0.08808                      -0.16963
                       0.98208                      -0.08167                      -0.16983
                       0.98251                      -0.07569                      -0.17011
                       0.98265                      -0.07001                      -0.17176
                       0.98250                      -0.06462                      -0.17468
                       0.98208                      -0.05945                      -0.17885
                       0.98146                      -0.05447                      -0.18377
                       0.98107                      -0.04982                      -0.18714
                       0.98099                      -0.04560                      -0.18860
                       0.98094                      -0.04170                      -0.18976
                       0.98070                      -0.03799                      -0.19181
                       0.98014                      -0.03432                      -0.19534
                       0.97927                      -0.03061                      -0.20023
                       0.97811                      -0.02677                      -0.20636
                       0.97670                      -0.02266                      -0.21342
                       0.97536                      -0.01821                      -0.21986
                       0.97432                      -0.01316                      -0.22478
                       0.97327                      -0.00733                      -0.22954
                       0.97207                      -0.00144                      -0.23467
                       0.97072                       0.00415                      -0.24018
                       0.96918                       0.00905                      -0.24617
                       0.96757                       0.01291                      -0.25226
                       0.96596                       0.01459                      -0.25829
                       0.96450                       0.01509                      -0.26364
                       0.96323                       0.01498                      -0.26826
                       0.96201                       0.01429                      -0.27264
                       0.96087                       0.01303                      -0.27670
                       0.95986                       0.01109                      -0.28024
                       0.95895                       0.00825                      -0.28346
                       0.95833                       0.00459                      -0.28562
                       0.95755                       0.00009                      -0.28825
        </DataArray>
        <DataArray type="Float32" Name="OrientationY" NumberOfComponents="3" format="ascii">
                       0.30159                       0.95339                       0.00978
                       0.30151                       0.95341                       0.01005
                       0.29872                       0.95427                       0.01149
                       0.29121                       0.95656                       0.01372
                       0.27981                       0.95993                       0.01573
                       0.26544                       0.96397                       0.01754
                       0.24906                       0.96830                       0.01918
                       0.23170                       0.97256                       0.02087
                       0.21443                       0.97646                       0.02326
                       0.19812                       0.97983                       0.02608
                       0.18369                       0.98257                       0.02847
                       0.17146                       0.98473                       0.03021
                       0.16050                       0.98653                       0.03163
                       0.14957                       0.98819                       0.03320
                       0.13902                       0.98968                       0.03482
                       0.12897                       0.99098                       0.03638
                       0.11956                       0.99210                       0.03785
                       0.11101                       0.99304                       0.03924
                       0.10333                       0.99382                       0.04060
                       0.09648                       0.99445                       0.04191
                       0.09021                       0.99499                       0.04319
                       0.08437                       0.99545                       0.04437
                       0.07889                       0.99585                       0.04540
                       0.07375                       0.99620                       0.04632
                       0.06891                       0.99651                       0.04716
                       0.06430                       0.99678                       0.04795
                       0.05993                       0.99701                       0.04875
                       0.05588                       0.99721                       0.04953
                       0.05212                       0.99738                       0.05024
                       0.04859                       0.99752                       0.05088
                       0.04519                       0.99765                       0.05146
                       0.04182                       0.99777                       0.05203
                       0.03841                       0.99788                       0.05261
                       0.03479                       0.99798                       0.05324
                       0.03080                       0.99807                       0.05397
                       0.02614                       0.99815                       0.05484
                       0.02070                       0.99822                       0.05590
                       0.01523                       0.99826                       0.05698
                       0.01008                       0.99827                       0.05800
                       0.00564                       0.99825                       0.05887
                       0.00220                       0.99822                       0.05952
                       0.00086                       0.99822                       0.05963
                       0.00063                       0.99823                       0.05943
                       0.00093                       0.99825                       0.05908
                       0.00177                       0.99828                       0.05859
                       0.00315                       0.99831                       0.05797
                       0.00516                       0.99835                       0.05719
                       0.00802                       0.99839                       0.05620
                       0.01161                       0.99842                       0.05502
                       0.01605                       0.99843                       0.05363
        </DataArray>
        <DataArray type="Float32" Name="OrientationZ" NumberOfComponents="3" format="ascii">
                       0.12681                      -0.05028                       0.99065
                       0.12574                      -0.05021                       0.99079
                       0.12212                      -0.05017                       0.99125
                       0.11833                      -0.05024                       0.99170
                       0.11754                      -0.05052                       0.99178
                       0.11951                      -0.05095                       0.99152
                       0.12393                      -0.05151                       0.99095
                       0.12959                      -0.05213                       0.99020
                       0.13245                      -0.05267                       0.98979
                       0.13236                      -0.05311                       0.98978
                       0.13313                      -0.05357                       0.98965
                       0.13634                      -0.05408                       0.98918
                       0.14098                      -0.05463                       0.98850
                       0.14492                      -0.05513                       0.98791
                       0.14844                      -0.05559                       0.98736
                       0.15225                      -0.05604                       0.98675
                       0.15644                      -0.05648                       0.98607