<?xml version="1.0"?>
<VTKFile type="PolyData" version="0.1" byte_order="LittleEndian">
  <PolyData>
    <Piece NumberOfPoints="     50" NumberOfVerts="  0" NumberOfLines="     49"
           NumberOfStrips="  0" NumberOfPolys="      0">
      <Points>
        <DataArray type="Float32" NumberOfComponents="3" format="ascii">
                       0.88288                       0.81143                     146.34448
                       0.36704                       1.76289                     144.21450
                      -0.15206                       2.74635                     142.10095
                      -0.68170                       3.79273                     140.02075
                      -1.21593                       4.88162                     137.96245
                      -1.74916                       5.99360                     135.91515
                      -2.27648                       7.10718                     133.86717
                      -2.79414                       8.19201                     131.80283
                      -3.30244                       9.23496                     129.71590
                      -3.81338                      10.28387                     127.63266
                      -4.32774                      11.33210                     125.55004
                      -4.84201                      12.36629                     123.46065
                      -5.34986                      13.36982                     121.35487
                      -5.85152                      14.35553                     119.23900
                      -6.34900                      15.34565                     117.12433
                      -6.84176                      16.34060                     115.01092
                      -7.32934                      17.33873                     112.89789
                      -7.81085                      18.34010                     110.78505
                      -8.28806                      19.34278                     108.67189
                      -8.76514                      20.34558                     106.55872
                      -9.24495                      21.34806                     104.44590
                      -9.73013                      22.35055                     102.33403
                     -10.21806                      23.35423                     100.22299
                     -10.70518                      24.36004                      98.11239
                     -11.18938                      25.36785                      96.00164
                     -11.66735                      26.37798                      93.89021
                     -12.13927                      27.39056                      91.77814
                     -12.61272                      28.40540                      89.66668
                     -13.08968                      29.42120                      87.55539
                     -13.57008                      30.43853                      85.44435
                     -14.05008                      31.45739                      83.33266
                     -14.52685                      32.47775                      81.21970
                     -14.99692                      33.49919                      79.10461
                     -15.45806                      34.52149                      76.98687
                     -15.90805                      35.54451                      74.86608
                     -16.35218                      36.56781                      72.74278
                     -16.79243                      37.59124                      70.61711
                     -17.22734                      38.61436                      68.48861
                     -17.65646                      39.63685                      66.35703
                     -18.07836                      40.65836                      64.22206
                     -18.49202                      41.67950                      62.08395
                     -18.89784                      42.70052                      59.94298
                     -19.29585                      43.72151                      57.79935
                     -19.68908                      44.74192                      55.65330
                     -20.07758                      45.76144                      53.50493
                     -20.46180                      46.77985                      51.35447
                     -20.84208                      47.79729                      49.20241
                     -21.21967                      48.81411                      47.04950
                     -21.59394                      49.82986                      44.89607
                     -21.97457                      50.71622                      42.68285
        </DataArray>
      </Points>
      <PointData>
        <DataArray type="Float32" Name="TranslationalVelocity" NumberOfComponents="3" format="ascii">
                       2.20916                       1.94859                       0.94787
                       2.27971                       3.20568                       1.49233
                       2.35358                       4.45355                       2.05485
                       2.43399                       5.68313                       2.65289
                       2.51861                       6.90012                       3.27472
                       2.60523                       8.10998                       3.90923
                       2.69141                       9.31869                       4.54414
                       2.77377                      10.53462                       5.16226
                       2.85081                      11.76123                       5.75624
                       2.92758                      12.98487                       6.35322
                       3.00328                      14.20731                       6.94947
                       3.07640                      15.43235                       7.53748
                       3.14506                      16.66476                       8.10787
                       3.21060                      17.90101                       8.66791
                       3.27532                      19.13500                       9.23013
                       3.33922                      20.36668                       9.79476
                       3.40212                      21.59655                      10.36090
                       3.46399                      22.82465                      10.92857
                       3.52463                      24.05149                      11.49675
                       3.58395                      25.27734                      12.06483
                       3.64193                      26.50232                      12.63266
                       3.69866                      27.72635                      13.20048
                       3.75430                      28.94929                      13.76891
                       3.80898                      30.17101                      14.33839
                       3.86274                      31.39167                      14.90881
                       3.91569                      32.61127                      15.48025
                       3.96790                      33.82981                      16.05278
                       4.01947                      35.04728                      16.62639
                       4.07036                      36.26412                      17.20038
                       4.12071                      37.48028                      17.77505
                       4.17062                      38.69583                      18.35025
                       4.22017                      39.91087                      18.92586
                       4.26941                      41.12550                      19.50153
                       4.31842                      42.33979                      20.07702
                       4.36728                      43.55371                      20.65215
                       4.41608                      44.76742                      21.22675
                       4.46491                      45.98102                      21.80073
                       4.51383                      47.19460                      22.37377
                       4.56291                      48.40822                      22.94565
                       4.61220                      49.62192                      23.51610
                       4.66186                      50.83546                      24.08542
                       4.71201                      52.04876                      24.65375
                       4.76275                      53.26172                      25.22113
                       4.81411                      54.47456                      25.78735
                       4.86612                      55.68732                      26.35227
                       4.91883                      56.90002                      26.91585
                       4.97230                      58.11257                      27.47825
                       5.02661                      59.32487                      28.03979
                       5.08172                      60.53689                      28.60037
                       5.12453                      61.78222                      29.09015
        </DataArray>
        <DataArray type="Float32" Name="RotationalVelocity" NumberOfComponents="3" format="ascii">
                       0.56565                       0.01218                      -0.10147
                       0.56557                       0.01222                      -0.10143
                       0.56540                       0.01227                      -0.10136
                       0.56515                       0.01236                      -0.10125
                       0.56481                       0.01248                      -0.10110
                       0.56442                       0.01264                      -0.10092
                       0.56398                       0.01284                      -0.10071
                       0.56352                       0.01308                      -0.10047
                       0.56303                       0.01335                      -0.10021
                       0.56253                       0.01367                      -0.09993
                       0.56202                       0.01402                      -0.09962
                       0.56152                       0.01440                      -0.09930
                       0.56103                       0.01481                      -0.09898
                       0.56055                       0.01524                      -0.09864
                       0.56009                       0.01569                      -0.09830
                       0.55964                       0.01616                      -0.09796
                       0.55921                       0.01663                      -0.09761
                       0.55880                       0.01711                      -0.09727
                       0.55841                       0.01758                      -0.09694
                       0.55803                       0.01806                      -0.09661
                       0.55767                       0.01852                      -0.09629
                       0.55731                       0.01896                      -0.09598
                       0.55697                       0.01939                      -0.09568
                       0.55663                       0.01980                      -0.09540
                       0.55629                       0.02017                      -0.09513
                       0.55596                       0.02052                      -0.09487
                       0.55561                       0.02084                      -0.09463
                       0.55527                       0.02111                      -0.09440
                       0.55491                       0.02135                      -0.09419
                       0.55454                       0.02155                      -0.09399
                       0.55415                       0.02171                      -0.09382
                       0.55375                       0.02182                      -0.09366
                       0.55333                       0.02189                      -0.09351
                       0.55289                       0.02191                      -0.09339
                       0.55244                       0.02189                      -0.09328
                       0.55197                       0.02182                      -0.09319
                       0.55148                       0.02171                      -0.09311
                       0.55098                       0.02156                      -0.09305
                       0.55047                       0.02137                      -0.09301
                       0.54995                       0.02115                      -0.09298
                       0.54944                       0.02089                      -0.09297
                       0.54893                       0.02060                      -0.09298
                       0.54844                       0.02028                      -0.09300
                       0.54798                       0.01995                      -0.09305
                       0.54757                       0.01959                      -0.09311
                       0.54721                       0.01923                      -0.09319
                       0.54691                       0.01886                      -0.09329
                       0.54671                       0.01849                      -0.09342
                       0.54661                       0.01815                      -0.09356
                       0.54661                       0.01781                      -0.09372
        </DataArray>
        <DataArray type="Float32" Name="TranslationalAcceleration" NumberOfComponents="3" format="ascii">
                      -0.06629                      -0.89783                       1.02660
                       0.06119                      -1.39122                       1.65873
                       0.18661                      -1.89047                       2.28444
                       0.30882                      -2.40129                       2.89786
                       0.42848                      -2.91520                       3.50571
                       0.54639                      -3.42451                       4.11414
                       0.66341                      -3.92125                       4.72910
                       0.78056                      -4.39490                       5.35759
                       0.89832                      -4.84026                       6.00192
                       1.01605                      -5.27107                       6.65188
                       1.13435                      -5.68493                       7.30887
                       1.25387                      -6.07750                       7.97521
                       1.37514                      -6.44342                       8.65335
                       1.49827                      -6.78673                       9.34031
                       1.62344                      -7.11479                      10.03200
                       1.75112                      -7.42817                      10.72824
                       1.88176                      -7.72683                      11.42912
                       2.01582                      -8.01128                      12.13446
                       2.15372                      -8.28136                      12.84431
                       2.29586                      -8.53709                      13.55858
                       2.44265                      -8.77867                      14.27708
                       2.59449                      -9.00650                      14.99955
                       2.75181                      -9.22117                      15.72575
                       2.91506                      -9.42313                      16.45553
                       3.08471                      -9.61237                      17.18888
                       3.26114                      -9.78908                      17.92576
                       3.44484                      -9.95312                      18.66620
                       3.63633                     -10.10394                      19.41017
                       3.83609                     -10.24061                      20.15782
                       4.04462                     -10.36281                      20.90918
                       4.26244                     -10.46998                      21.66445
                       4.49008                     -10.56150                      22.42382
                       4.72805                     -10.63661                      23.18759
                       4.97686                     -10.69458                      23.95600
                       5.23700                     -10.73475                      24.72932
                       5.50894                     -10.75616                      25.50761
                       5.79312                     -10.75806                      26.29093
                       6.08995                     -10.73983                      27.07943
                       6.39980                     -10.70101                      27.87316
                       6.72297                     -10.64135                      28.67218
                       7.05966                     -10.56126                      29.47651
                       7.40997                     -10.46118                      30.28606
                       7.77380                     -10.34191                      31.10070
                       8.15088                     -10.20415                      31.92003
                       8.54073                     -10.04937                      32.74362
                       8.94273                      -9.87961                      33.57089
                       9.35602                      -9.69768                      34.40109
                       9.77957                      -9.50715                      35.23324
                      10.21202                      -9.31220                      36.06622
                      10.64485                      -9.06443                      36.88936
        </DataArray>
        <DataArray type="Float32" Name="OrientationX" NumberOfComponents="3" format="ascii">
                       0.94969                       0.30108                      -0.08623
                       0.94950                       0.30142                      -0.08719
                       0.94940                       0.30035                      -0.09186
                       0.95028                       0.29517                      -0.09919
                       0.95253                       0.28539                      -0.10598
                       0.95579                       0.27192                      -0.11193
                       0.95968                       0.25569                      -0.11678
                       0.96366                       0.23812                      -0.12105
                       0.96669                       0.22176                      -0.12777
                       0.96864                       0.20750                      -0.13668
                       0.97025                       0.19462                      -0.14399
                       0.97193                       0.18278                      -0.14814
                       0.97362                       0.17153                      -0.15049
                       0.97501                       0.16061                      -0.15348
                       0.97615                       0.15023                      -0.15672
                       0.97719                       0.14020                      -0.15951
                       0.97815                       0.13063                      -0.16171
                       0.97896                       0.12189                      -0.16367
                       0.97941                       0.11446                      -0.16632
                       0.97948                       0.10841                      -0.16990
                       0.97926                       0.10338                      -0.17425
                       0.97899                       0.09874                      -0.17841
                       0.97895                       0.09388                      -0.18125
                       0.97912                       0.08883                      -0.18286
                       0.97950                       0.08355                      -0.18329
                       0.98000                       0.07818                      -0.18302
                       0.98014                       0.07374                      -0.18410
                       0.97986                       0.07045                      -0.18685
                       0.97949                       0.06760                      -0.18982
                       0.97928                       0.06461                      -0.19194
                       0.97934                       0.06113                      -0.19275
                       0.97966                       0.05712                      -0.19237
                       0.98020                       0.05255                      -0.19093
                       0.98088                       0.04738                      -0.18876
                       0.98139                       0.04214                      -0.18732
                       0.98156                       0.03695                      -0.18753
                       0.98164                       0.03109                      -0.18819
                       0.98176                       0.02501                      -0.18849
                       0.98192                       0.01906                      -0.18831
                       0.98219                       0.01356                      -0.18738
                       0.98253                       0.00894                      -0.18591
                       0.98297                       0.00634                      -0.18363
                       0.98338                       0.00506                      -0.18146
                       0.98372                       0.00457                      -0.17965
                       0.98407                       0.00464                      -0.17771
                       0.98443                       0.00529                      -0.17569
                       0.98477                       0.00668                      -0.17372
                       0.98514                       0.00893                      -0.17150
                       0.98542                       0.01224                      -0.16971
                       0.98584                       0.01604                      -0.16694
        </DataArray>
        <DataArray type="Float32" Name="OrientationY" NumberOfComponents="3" format="ascii">
                       0.22787                      -0.85316                      -0.46924
                       0.22771                      -0.85310                      -0.46943
                       0.22457                      -0.85361                      -0.47002
                       0.21666                      -0.85555                      -0.47021
                       0.20512                      -0.85889                      -0.46929
                       0.19083                      -0.86319                      -0.46743
                       0.17470                      -0.86800                      -0.46482
                       0.15765                      -0.87282                      -0.46188
                       0.14047                      -0.87705                      -0.45941
                       0.12408                      -0.88055                      -0.45742
                       0.10963                      -0.88350                      -0.45543
                       0.09751                      -0.88596                      -0.45339
                       0.08670                      -0.88812                      -0.45136
                       0.07588                      -0.89009                      -0.44942
                       0.06540                      -0.89186                      -0.44757
                       0.05543                      -0.89344                      -0.44575
                       0.04610                      -0.89484                      -0.44401
                       0.03760                      -0.89603                      -0.44240
                       0.02994                      -0.89700                      -0.44101
                       0.02308                      -0.89779                      -0.43982
                       0.01678                      -0.89845                      -0.43875
                       0.01090                      -0.89905                      -0.43771
                       0.00543                      -0.89962                      -0.43665
                       0.00032                      -0.90015                      -0.43558
                      -0.00449                      -0.90065                      -0.43452
                      -0.00906                      -0.90112                      -0.43348
                      -0.01341                      -0.90153                      -0.43251
                      -0.01746                      -0.90189                      -0.43161
                      -0.02121                      -0.90223                      -0.43074
                      -0.02471                      -0.90255                      -0.42987
                      -0.02807                      -0.90288                      -0.42898
                      -0.03140                      -0.90320                      -0.42808
                      -0.03477                      -0.90352                      -0.42714
                      -0.03835                      -0.90384                      -0.42615
                      -0.04231                      -0.90417                      -0.42508
                      -0.04693                      -0.90451                      -0.42386
                      -0.05233                      -0.90487                      -0.42245
                      -0.05777                      -0.90521                      -0.42102
                      -0.06290                      -0.90551                      -0.41964
                      -0.06732                      -0.90577                      -0.41840
                      -0.07072                      -0.90599                      -0.41736
                      -0.07200                      -0.90618                      -0.41672
                      -0.07215                      -0.90636                      -0.41630
                      -0.07175                      -0.90654                      -0.41597
                      -0.07081                      -0.90670                      -0.41579
                      -0.06932                      -0.90684                      -0.41574
                      -0.06720                      -0.90695                      -0.41585
                      -0.06423                      -0.90701                      -0.41618
                      -0.06050                      -0.90703                      -0.41670
                      -0.05594                      -0.90698                      -0.41745
        </DataArray>
        <DataArray type="Float32" Name="OrientationZ" NumberOfComponents="3" format="ascii">
                      -0.21485                       0.42598                      -0.87885
                      -0.21587                       0.42587                      -0.87866
                      -0.21958                       0.42560                      -0.87787
                      -0.22365                       0.42534                      -0.87697
                      -0.22495                       0.42528                      -0.87666
                      -0.22371                       0.42540                      -0.87692
                      -0.22022                       0.42568                      -0.87767
                      -0.21564                       0.42602                      -0.87864
                      -0.21394                       0.42616                      -0.87899
                      -0.21527                       0.42611                      -0.87869
                      -0.21585                       0.42610                      -0.87855
                      -0.21412                       0.42622                      -0.87892
                      -0.21107                       0.42641                      -0.87956
                      -0.20879                       0.42655                      -0.88004
                      -0.20701                       0.42664                      -0.88041
                      -0.20501                       0.42674                      -0.88083
                      -0.20271                       0.42685                      -0.88131