<?xml version="1.0"?>
<VTKFile type="PolyData" version="0.1" byte_order="LittleEndian">
  <PolyData>
    <Piece NumberOfPoints="     51" NumberOfVerts="  0" NumberOfLines="     50"
           NumberOfStrips="  0" NumberOfPolys="      0">
      <Points>
        <DataArray type="Float32" NumberOfComponents="3" format="ascii">
                     418.80000                     725.38300                    -200.00000
                     410.29649                     710.65448                    -200.00582
                     401.79298                     695.92596                    -200.00585
                     393.28947                     681.19743                    -200.00585
                     384.78596                     666.46891                    -200.00585
                     376.28246                     651.74039                    -200.00585
                     367.77895                     637.01187                    -200.00585
                     359.27544                     622.28334                    -200.00585
                     350.77193                     607.55482                    -200.00585
                     342.26842                     592.82630                    -200.00585
                     333.76491                     578.09778                    -200.00585
                     325.26140                     563.36925                    -200.00585
                     316.75789                     548.64073                    -200.00585
                     308.25438                     533.91221                    -200.00585
                     299.75088                     519.18369                    -200.00585
                     291.24737                     504.45516                    -200.00585
                     282.74386                     489.72664                    -200.00585
                     274.24035                     474.99812                    -200.00585
                     265.73684                     460.26960                    -200.00585
                     257.23333                     445.54107                    -200.00585
                     248.72982                     430.81255                    -200.00585
                     240.22631                     416.08403                    -200.00585
                     231.72280                     401.35551                    -200.00585
                     223.21930                     386.62699                    -200.00585
                     214.71579                     371.89846                    -200.00585
                     206.21228                     357.16994                    -200.00585
                     197.70877                     342.44142                    -200.00585
                     189.20526                     327.71290                    -200.00585
                     180.70175                     312.98437                    -200.00585
                     172.19824                     298.25585                    -200.00582
                     163.69474                     283.52733                    -200.00046
                     155.21079                     268.83269                    -198.84727
                     146.79107                     254.24930                    -196.46514
                     138.47738                     239.84955                    -192.89108
                     130.30707                     225.69815                    -188.17591
                     122.31272                     211.85151                    -182.37805
                     114.51683                     198.34863                    -175.58417
                     106.93798                     185.22166                    -167.86976
                      99.59068                     172.49575                    -159.30559
                      92.48164                     160.18252                    -149.97115
                      85.61216                     148.28422                    -139.94436
                      78.98226                     136.80089                    -129.29146
                      72.58893                     125.72730                    -118.07456
                      66.42584                     115.05251                    -106.35301
                      60.48363                     104.76030                     -94.18326
                      54.75404                      94.83634                     -81.61179
                      49.22980                      85.26808                     -68.67737
                      43.90315                      76.04204                     -55.41507
                      38.76338                      67.13969                     -41.86050
                      33.79868                      58.54056                     -28.04687
                      29.00000                      50.22900                     -14.00000
        </DataArray>
      </Points>
      <PointData>
        <DataArray type="Float32" Name="RefOrientationX" NumberOfComponents="3" format="ascii">
                       1.00000                       0.00000                       0.00000
                       1.00000                       0.00000                       0.00000
                       1.00000                       0.00000                       0.00000
                       1.00000                       0.00000                       0.00000
                       1.00000                       0.00000                       0.00000
                       1.00000                       0.00000                       0.00000
                       1.00000                       0.00000                       0.00000
                       1.00000                       0.00000                       0.00000
                       1.00000                       0.00000                       0.00000
                       1.00000                       0.00000                       0.00000
                       1.00000                       0.00000                       0.00000
                       1.00000                       0.00000                       0.00000
                       1.00000                       0.00000                       0.00000
                       1.00000                       0.00000                       0.00000
                       1.00000                       0.00000                       0.00000
                       1.00000                       0.00000                       0.00000
                       1.00000                       0.00000                       0.00000
                       1.00000                       0.00000                       0.00000
                       1.00000                       0.00000                       0.00000
                       1.00000                       0.00000                       0.00000
                       1.00000                       0.00000                       0.00000
                       1.00000                       0.00000                       0.00000
                       1.00000                       0.00000                       0.00000
                       1.00000                       0.00000                       0.00000
                       1.00000                       0.00000                       0.00000
                       1.00000                       0.00000                       0.00000
                       1.00000                       0.00000                       0.00000
                       1.00000                       0.00000                       0.00000
                       1.00000                       0.00000                       0.00000
                       1.00000                       0.00000                       0.00000
                       1.00000                       0.00000                       0.00000
                       1.00000                       0.00000                       0.00000
                       1.00000                       0.00000                       0.00000
                       1.00000                       0.00000                       0.00000
                       1.00000                       0.00000                       0.00000
                       1.00000                       0.00000                       0.00000
                       1.00000                       0.00000                       0.00000
                       1.00000                       0.00000                       0.00000
                       1.00000                       0.00000                       0.00000
                       1.00000                       0.00000                       0.00000
                       1.00000                       0.00000                       0.00000
                       1.00000                       0.00000                       0.00000
                       1.00000                       0.00000                       0.00000
                       1.00000                       0.00000                       0.00000
                       1.00000                       0.00000                       0.00000
                       1.00000                       0.00000                       0.00000
                       1.00000                       0.00000                       0.00000
                       1.00000                       0.00000                       0.00000
                       1.00000                       0.00000                       0.00000
                       1.00000                       0.00000                       0.00000
                       1.00000                       0.00000                       0.00000
        </DataArray>
        <DataArray type="Float32" Name="RefOrientationY" NumberOfComponents="3" format="ascii">
                       0.00000                       1.00000                       0.00000
                       0.00000                       1.00000                       0.00000
                       0.00000                       1.00000                       0.00000
                       0.00000                       1.00000                       0.00000
                       0.00000                       1.00000                       0.00000
                       0.00000                       1.00000                       0.00000
                       0.00000                       1.00000                       0.00000
                       0.00000                       1.00000                       0.00000
                       0.00000                       1.00000                       0.00000
                       0.00000                       1.00000                       0.00000
                       0.00000                       1.00000                       0.00000
                       0.00000                       1.00000                       0.00000
                       0.00000                       1.00000                       0.00000
                       0.00000                       1.00000                       0.00000
                       0.00000                       1.00000                       0.00000
                       0.00000                       1.00000                       0.00000
                       0.00000                       1.00000                       0.00000
                       0.00000                       1.00000                       0.00000
                       0.00000                       1.00000                       0.00000
                       0.00000                       1.00000                       0.00000
                       0.00000                       1.00000                       0.00000
                       0.00000                       1.00000                       0.00000
                       0.00000                       1.00000                       0.00000
                       0.00000                       1.00000                       0.00000
                       0.00000                       1.00000                       0.00000
                       0.00000                       1.00000                       0.00000
                       0.00000                       1.00000                       0.00000
                       0.00000                       1.00000                       0.00000
                       0.00000                       1.00000                       0.00000
                       0.00000                       1.00000                       0.00000
                       0.00000                       1.00000                       0.00000
                       0.00000                       1.00000                       0.00000
                       0.00000                       1.00000                       0.00000
                       0.00000                       1.00000                       0.00000
                       0.00000                       1.00000                       0.00000
                       0.00000                       1.00000                       0.00000
                       0.00000                       1.00000                       0.00000
                       0.00000                       1.00000                       0.00000
                       0.00000                       1.00000                       0.00000
                       0.00000                       1.00000                       0.00000
                       0.00000                       1.00000                       0.00000
                       0.00000                       1.00000                       0.00000
                       0.00000                       1.00000                       0.00000
                       0.00000                       1.00000                       0.00000
                       0.00000                       1.00000                       0.00000
                       0.00000                       1.00000                       0.00000
                       0.00000                       1.00000                       0.00000
                       0.00000                       1.00000                       0.00000
                       0.00000                       1.00000                       0.00000
                       0.00000                       1.00000                       0.00000
                       0.00000                       1.00000                       0.00000
        </DataArray>
        <DataArray type="Float32" Name="RefOrientationZ" NumberOfComponents="3" format="ascii">
                       0.00000                       0.00000                       1.00000
                       0.00000                       0.00000                       1.00000
                       0.00000                       0.00000                       1.00000
                       0.00000                       0.00000                       1.00000
                       0.00000                       0.00000                       1.00000
                       0.00000                       0.00000                       1.00000
                       0.00000                       0.00000                       1.00000
                       0.00000                       0.00000                       1.00000
                       0.00000                       0.00000                       1.00000
                       0.00000                       0.00000                       1.00000
                       0.00000                       0.00000                       1.00000
                       0.00000                       0.00000                       1.00000
                       0.00000                       0.00000                       1.00000
                       0.00000                       0.00000                       1.00000
                       0.00000                       0.00000                       1.00000
                       0.00000                       0.00000                       1.00000
                       0.00000                       0.00000                       1.00000
                       0.00000                       0.00000                       1.00000
                       0.00000                       0.00000                       1.00000
                       0.00000                       0.00000                       1.00000
                       0.00000                       0.00000                       1.00000
                       0.00000                       0.00000                       1.00000
                       0.00000                       0.00000                       1.00000
                       0.00000                       0.00000                       1.00000
                       0.00000                       0.00000                       1.00000
                       0.00000                       0.00000                       1.00000
                       0.00000                       0.00000                       1.00000
                       0.00000                       0.00000                       1.00000
                       0.00000                       0.00000                       1.00000
                       0.00000                       0.00000                       1.00000
                       0.00000                       0.00000                       1.00000
                       0.00000                       0.00000                       1.00000
                       0.00000                       0.00000                       1.00000
                       0.00000                       0.00000                       1.00000
                       0.00000                       0.00000                       1.00000
                       0.00000                       0.00000                       1.00000
                       0.00000                       0.00000                       1.00000
                       0.00000                       0.00000                       1.00000
                       0.00000                       0.00000                       1.00000
                       0.00000                       0.00000                       1.00000
                       0.00000                       0.00000                       1.00000
                       0.00000                       0.00000                       1.00000
                       0.00000                       0.00000                       1.00000
                       0.00000                       0.00000                       1.00000
                       0.00000                       0.00000                       1.00000
                       0.00000                       0.00000                       1.00000
                       0.00000                       0.00000                       1.00000
                       0.00000                       0.00000                       1.00000
                       0.00000                       0.00000                       1.00000
                       0.00000                       0.00000                       1.00000
                       0.00000                       0.00000                       1.00000
        </DataArray>
      </PointData>
      <Lines>
        <DataArray type="Int32" Name="connectivity" format="ascii">
      0      1
      1      2
      2      3
      3      4
      4      5
      5      6
      6      7
      7      8
      8      9
      9     10
     10     11
     11     12
     12     13
     13     14
     14     15
     15     16
     16     17
     17     18
     18     19
     19     20
     20     21
     21     22
     22     23
     23     24
     24     25
     25     26
     26     27
     27     28
     28     29
     29     30
     30     31
     31     32
     32     33
     33     34
     34     35
     35     36
     36     37
     37     38
     38     39
     39     40
     40     41
     41     42
     42     43
     43     44
     44     45
     45     46
     46     47
     47     48
     48     49
     49     50
        </DataArray>
        <DataArray type="Int32" Name="offsets" format="ascii">
      2
      4
      6
      8
     10
     12
     14
     16
     18
     20
     22
     24
     26
     28
     30
     32
     34
     36
     38
     40
     42
     44
     46
     48
     50
     52
     54
     56
     58
     60
     62
     64
     66
     68
     70
     72
     74
     76
     78
     80
     82
     84
     86
     88
     90
     92
     94
     96
     98
    100
        </DataArray>
      </Lines>
    </Piece>
  </PolyData>
</VTKFile>
