<?xml version="1.0"?>
<VTKFile type="PolyData" version="0.1" byte_order="LittleEndian">
  <PolyData>
    <Piece NumberOfPoints="      3" NumberOfVerts="  0" NumberOfLines="      2"
           NumberOfStrips="  0" NumberOfPolys="      0">
      <Points>
        <DataArray type="Float32" NumberOfComponents="3" format="ascii">
                      35.85089                      -0.87395                     147.54920
                      35.85125                      -0.87400                     147.55418
                      35.85053                      -0.87390                     147.54421
        </DataArray>
      </Points>
      <PointData>
        <DataArray type="Float32" Name="TranslationalVelocity" NumberOfComponents="3" format="ascii">
                      -0.20185                      -0.02952                       0.02428
                      -0.20185                      -0.02952                       0.02428
                      -0.20186                      -0.02952                       0.02428
        </DataArray>
        <DataArray type="Float32" Name="RotationalVelocity" NumberOfComponents="3" format="ascii">
                       0.00018                       0.00043                      -0.00047
                       0.00018                       0.00043                      -0.00047
                       0.00018                       0.00043                      -0.00047
        </DataArray>
        <DataArray type="Float32" Name="TranslationalAcceleration" NumberOfComponents="3" format="ascii">
                       0.00543                       0.02746                       0.01519
                       0.00544                       0.02746                       0.01519
                       0.00543                       0.02746                       0.01519
        </DataArray>
        <DataArray type="Float32" Name="RotationalAcceleration" NumberOfComponents="3" format="ascii">
                      -0.00009                       0.00076                       0.00054
                      -0.00009                       0.00076                       0.00054
                      -0.00009                       0.00076                       0.00054
        </DataArray>
        <DataArray type="Float32" Name="OrientationX" NumberOfComponents="3" format="ascii">
                       0.99737                       0.00436                      -0.07233
                       0.99737                       0.00436                      -0.07233
                       0.99737                       0.00436                      -0.07233
        </DataArray>
        <DataArray type="Float32" Name="OrientationY" NumberOfComponents="3" format="ascii">
                      -0.00365                       0.99994                       0.01000
                      -0.00365                       0.99994                       0.01000
                      -0.00365                       0.99994                       0.01000
        </DataArray>
        <DataArray type="Float32" Name="OrientationZ" NumberOfComponents="3" format="ascii">
                       0.07237                      -0.00971                       0.99733
                       0.07237                      -0.00971                       0.99733
                       0.07237                      -0.00971                       0.99733
        </DataArray>
      </PointData>
      <Lines>
        <DataArray type="Int32" Name="connectivity" format="ascii">
      0      1
      2      0
        </DataArray>
        <DataArray type="Int32" Name="offsets" format="ascii">
      2
      4
        </DataArray>
      </Lines>
    </Piece>
  </PolyData>
</VTKFile>
