<?xml version="1.0"?>
<VTKFile type="PolyData" version="0.1" byte_order="LittleEndian">
  <PolyData>
    <Piece NumberOfPoints="      3" NumberOfVerts="  0" NumberOfLines="      2"
           NumberOfStrips="  0" NumberOfPolys="      0">
      <Points>
        <DataArray type="Float32" NumberOfComponents="3" format="ascii">
                      29.55831                      -0.25660                     147.59222
                      29.55869                      -0.25663                     147.59720
                      29.55793                      -0.25657                     147.58723
        </DataArray>
      </Points>
      <PointData>
        <DataArray type="Float32" Name="TranslationalVelocity" NumberOfComponents="3" format="ascii">
                      -0.30940                      -0.10897                       0.03814
                      -0.30940                      -0.10897                       0.03814
                      -0.30940                      -0.10896                       0.03814
        </DataArray>
        <DataArray type="Float32" Name="RotationalVelocity" NumberOfComponents="3" format="ascii">
                       0.00069                      -0.00039                      -0.00031
                       0.00069                      -0.00039                      -0.00031
                       0.00069                      -0.00039                      -0.00031
        </DataArray>
        <DataArray type="Float32" Name="TranslationalAcceleration" NumberOfComponents="3" format="ascii">
                       0.01668                      -0.00448                       0.01431
                       0.01668                      -0.00448                       0.01431
                       0.01668                      -0.00448                       0.01431
        </DataArray>
        <DataArray type="Float32" Name="RotationalAcceleration" NumberOfComponents="3" format="ascii">
                      -0.00010                       0.00033                      -0.00045
                      -0.00010                       0.00033                      -0.00045
                      -0.00010                       0.00033                      -0.00045
        </DataArray>
        <DataArray type="Float32" Name="OrientationX" NumberOfComponents="3" format="ascii">
                       0.99708                       0.00288                      -0.07633
                       0.99708                       0.00288                      -0.07633
                       0.99708                       0.00288                      -0.07633
        </DataArray>
        <DataArray type="Float32" Name="OrientationY" NumberOfComponents="3" format="ascii">
                      -0.00240                       0.99998                       0.00648
                      -0.00240                       0.99998                       0.00648
                      -0.00240                       0.99998                       0.00648
        </DataArray>
        <DataArray type="Float32" Name="OrientationZ" NumberOfComponents="3" format="ascii">
                       0.07634                      -0.00628                       0.99706
                       0.07634                      -0.00628                       0.99706
                       0.07634                      -0.00628                       0.99706
        </DataArray>
      </PointData>
      <Lines>
        <DataArray type="Int32" Name="connectivity" format="ascii">
      0      1
      2      0
        </DataArray>
        <DataArray type="Int32" Name="offsets" format="ascii">
      2
      4
        </DataArray>
      </Lines>
    </Piece>
  </PolyData>
</VTKFile>
