<?xml version="1.0"?>
<VTKFile type="PolyData" version="0.1" byte_order="LittleEndian">
  <PolyData>
    <Piece NumberOfPoints="      3" NumberOfVerts="  0" NumberOfLines="      2"
           NumberOfStrips="  0" NumberOfPolys="      0">
      <Points>
        <DataArray type="Float32" NumberOfComponents="3" format="ascii">
                      26.88872                      -0.25674                     147.98137
                      26.88910                      -0.25677                     147.98635
                      26.88834                      -0.25672                     147.97638
        </DataArray>
      </Points>
      <PointData>
        <DataArray type="Float32" Name="TranslationalVelocity" NumberOfComponents="3" format="ascii">
                       0.12430                      -0.10821                       0.01495
                       0.12430                      -0.10822                       0.01495
                       0.12431                      -0.10821                       0.01495
        </DataArray>
        <DataArray type="Float32" Name="RotationalVelocity" NumberOfComponents="3" format="ascii">
                       0.00062                      -0.00023                      -0.00025
                       0.00062                      -0.00023                      -0.00025
                       0.00062                      -0.00023                      -0.00025
        </DataArray>
        <DataArray type="Float32" Name="TranslationalAcceleration" NumberOfComponents="3" format="ascii">
                       0.01821                      -0.00303                      -0.01955
                       0.01822                      -0.00303                      -0.01955
                       0.01821                      -0.00303                      -0.01955
        </DataArray>
        <DataArray type="Float32" Name="RotationalAcceleration" NumberOfComponents="3" format="ascii">
                      -0.00006                       0.00043                      -0.00027
                      -0.00006                       0.00043                      -0.00027
                      -0.00006                       0.00043                      -0.00027
        </DataArray>
        <DataArray type="Float32" Name="OrientationX" NumberOfComponents="3" format="ascii">
                       0.99715                       0.00607                      -0.07514
                       0.99715                       0.00607                      -0.07514
                       0.99715                       0.00607                      -0.07514
        </DataArray>
        <DataArray type="Float32" Name="OrientationY" NumberOfComponents="3" format="ascii">
                      -0.00562                       0.99997                       0.00618
                      -0.00562                       0.99997                       0.00618
                      -0.00562                       0.99997                       0.00618
        </DataArray>
        <DataArray type="Float32" Name="OrientationZ" NumberOfComponents="3" format="ascii">
                       0.07518                      -0.00574                       0.99715
                       0.07518                      -0.00574                       0.99715
                       0.07518                      -0.00574                       0.99715
        </DataArray>
      </PointData>
      <Lines>
        <DataArray type="Int32" Name="connectivity" format="ascii">
      0      1
      2      0
        </DataArray>
        <DataArray type="Int32" Name="offsets" format="ascii">
      2
      4
        </DataArray>
      </Lines>
    </Piece>
  </PolyData>
</VTKFile>
