<?xml version="1.0"?>
<VTKFile type="PolyData" version="0.1" byte_order="LittleEndian">
  <PolyData>
    <Piece NumberOfPoints="     50" NumberOfVerts="  0" NumberOfLines="     49"
           NumberOfStrips="  0" NumberOfPolys="      0">
      <Points>
        <DataArray type="Float32" NumberOfComponents="3" format="ascii">
                      19.57270                       2.96114                     152.70201
                      19.69477                       4.83532                     154.17874
                      19.81705                       6.68626                     155.68300
                      19.93608                       8.49101                     157.24224
                      20.05613                      10.26482                     158.83807
                      20.18115                      12.02215                     160.45302
                      20.31412                      13.77888                     162.06798
                      20.45584                      15.55709                     163.65655
                      20.60486                      17.36607                     165.20766
                      20.75450                      19.17044                     166.76395
                      20.90351                      20.97493                     168.31994
                      21.05417                      22.78948                     169.86364
                      21.21124                      24.62654                     171.37972
                      21.37606                      26.47685                     172.87902
                      21.54920                      28.32436                     174.38063
                      21.73141                      30.16880                     175.88476
                      21.92315                      32.01137                     177.38987
                      22.12548                      33.85206                     178.89578
                      22.33660                      35.69215                     180.40118
                      22.55239                      37.53228                     181.90588
                      22.77017                      39.37273                     183.41013
                      22.98756                      41.21327                     184.91478
                      23.20756                      43.05336                     186.42024
                      23.43406                      44.89257                     187.92654
                      23.66942                      46.73116                     189.43303
                      23.91716                      48.56901                     190.93922
                      24.17738                      50.40607                     192.44520
                      24.44287                      52.24253                     193.95246
                      24.71186                      54.07953                     195.46036
                      24.98479                      55.91692                     196.96939
                      25.26580                      57.75489                     198.47859
                      25.55798                      59.59358                     199.98723
                      25.86499                      61.43329                     201.49404
                      26.18925                      63.27414                     202.99816
                      26.53316                      65.11610                     204.49879
                      26.89173                      66.95972                     205.99676
                      27.26319                      68.80529                     207.49234
                      27.64911                      70.65308                     208.98468
                      28.05001                      72.50326                     210.47326
                      28.46729                      74.35590                     211.95729
                      28.90201                      76.21032                     213.43686
                      29.35370                      78.06618                     214.91217
                      29.82218                      79.92313                     216.38322
                      30.30422                      81.78159                     217.85029
                      30.79937                      83.64141                     219.31308
                      31.30667                      85.50233                     220.77150
                      31.82518                      87.36375                     222.22576
                      32.35296                      89.22493                     223.67652
                      32.88955                      91.08528                     225.12324
                      33.41005                      93.03513                     226.45978
        </DataArray>
      </Points>
      <PointData>
        <DataArray type="Float32" Name="TranslationalVelocity" NumberOfComponents="3" format="ascii">
                       0.62572                      -1.83995                       2.11348
                       0.86951                      -2.89285                       3.42961
                       1.11053                      -3.96520                       4.72951
                       1.34608                      -5.07592                       5.99715
                       1.57801                      -6.21271                       7.24328
                       1.80810                      -7.36387                       8.47809
                       2.03828                      -8.51638                       9.71276
                       2.27125                      -9.65181                      10.96283
                       2.50816                     -10.76218                      12.23490
                       2.74480                     -11.87666                      13.50411
                       2.98178                     -12.99123                      14.77381
                       3.22032                     -14.09775                      16.05100
                       3.46193                     -15.18600                      17.34440
                       3.70553                     -16.26375                      18.64750
                       3.94922                     -17.34454                      19.94897
                       4.19298                     -18.42860                      21.24858
                       4.43696                     -19.51489                      22.54717
                       4.68119                     -20.60340                      23.84471
                       4.92582                     -21.69298                      25.14208
                       5.17094                     -22.78297                      26.43975
                       5.41659                     -23.87318                      27.73792
                       5.66277                     -24.96389                      29.03645
                       5.90940                     -26.05578                      30.33491
                       6.15645                     -27.14936                      31.63297
                       6.40392                     -28.24449                      32.93079
                       6.65182                     -29.34126                      34.22827
                       6.90013                     -30.43975                      35.52536
                       7.14889                     -31.54011                      36.82225
                       7.39825                     -32.64166                      38.11977
                       7.64819                     -33.74481                      39.41784
                       7.89873                     -34.84943                      40.71656
                       8.14989                     -35.95542                      42.01602
                       8.40169                     -37.06238                      43.31642
                       8.65414                     -38.17002                      44.61783
                       8.90722                     -39.27812                      45.92023
                       9.16102                     -40.38663                      47.22406
                       9.41557                     -41.49553                      48.52958
                       9.67090                     -42.60443                      49.83694
                       9.92701                     -43.71306                      51.14630
                      10.18390                     -44.82102                      52.45768
                      10.44147                     -45.92855                      53.77060
                      10.69967                     -47.03571                      55.08480
                      10.95841                     -48.14247                      56.40003
                      11.21773                     -49.24859                      57.71659
                      11.47758                     -50.35377                      59.03435
                      11.73788                     -51.45779                      60.35307
                      11.99850                     -52.56062                      61.67228
                      12.25930                     -53.66239                      62.99138
                      12.52012                     -54.76258                      64.30986
                      12.79180                     -55.78234                      65.69211
        </DataArray>
        <DataArray type="Float32" Name="RotationalVelocity" NumberOfComponents="3" format="ascii">
                       0.70257                       0.00518                      -0.12600
                       0.70261                       0.00518                      -0.12600
                       0.70268                       0.00519                      -0.12601
                       0.70280                       0.00521                      -0.12604
                       0.70296                       0.00523                      -0.12608
                       0.70314                       0.00527                      -0.12614
                       0.70334                       0.00532                      -0.12620
                       0.70356                       0.00537                      -0.12629
                       0.70379                       0.00544                      -0.12638
                       0.70402                       0.00552                      -0.12648
                       0.70425                       0.00560                      -0.12660
                       0.70448                       0.00569                      -0.12672
                       0.70471                       0.00579                      -0.12685
                       0.70493                       0.00590                      -0.12699
                       0.70515                       0.00601                      -0.12714
                       0.70535                       0.00612                      -0.12729
                       0.70555                       0.00624                      -0.12744
                       0.70573                       0.00637                      -0.12760
                       0.70591                       0.00649                      -0.12776
                       0.70609                       0.00662                      -0.12792
                       0.70625                       0.00675                      -0.12809
                       0.70641                       0.00688                      -0.12825
                       0.70657                       0.00702                      -0.12842
                       0.70672                       0.00715                      -0.12859
                       0.70688                       0.00728                      -0.12876
                       0.70703                       0.00742                      -0.12892
                       0.70718                       0.00755                      -0.12909
                       0.70734                       0.00768                      -0.12926
                       0.70751                       0.00782                      -0.12943
                       0.70767                       0.00795                      -0.12959
                       0.70785                       0.00808                      -0.12976
                       0.70803                       0.00821                      -0.12993
                       0.70822                       0.00834                      -0.13009
                       0.70842                       0.00847                      -0.13026
                       0.70863                       0.00859                      -0.13042
                       0.70885                       0.00872                      -0.13058
                       0.70907                       0.00884                      -0.13074
                       0.70930                       0.00896                      -0.13089
                       0.70953                       0.00908                      -0.13105
                       0.70976                       0.00919                      -0.13120
                       0.70998                       0.00930                      -0.13134
                       0.71021                       0.00940                      -0.13148
                       0.71042                       0.00950                      -0.13161
                       0.71062                       0.00959                      -0.13173
                       0.71080                       0.00967                      -0.13184
                       0.71096                       0.00975                      -0.13193
                       0.71108                       0.00981                      -0.13201
                       0.71116                       0.00986                      -0.13207
                       0.71119                       0.00989                      -0.13212
                       0.71117                       0.00992                      -0.13215
        </DataArray>
        <DataArray type="Float32" Name="TranslationalAcceleration" NumberOfComponents="3" format="ascii">
                      -0.22888                      -1.56623                      -1.30530
                      -0.35562                      -2.52177                      -2.04606
                      -0.48488                      -3.46569                      -2.80045
                      -0.61915                      -4.38653                      -3.58175
                      -0.75684                      -5.29215                      -4.38132
                      -0.89643                      -6.19004                      -5.19097
                      -1.03622                      -7.08835                      -6.00155
                      -1.17381                      -7.99839                      -6.80009
                      -1.30814                      -8.92496                      -7.58094
                      -1.44300                      -9.85011                      -8.36463
                      -1.57787                     -10.77627                      -9.14833
                      -1.71167                     -11.70850                      -9.92628
                      -1.84303                     -12.65313                     -10.69127
                      -1.97297                     -13.60542                     -11.44877
                      -2.10325                     -14.55716                     -12.20832
                      -2.23391                     -15.50819                     -12.97010
                      -2.36481                     -16.45909                     -13.73339
                      -2.49596                     -17.40981                     -14.49818
                      -2.62721                     -18.36098                     -15.26367
                      -2.75848                     -19.31293                     -16.02939
                      -2.88975                     -20.26577                     -16.79521
                      -3.02108                     -21.21940                     -17.56133
                      -3.15258                     -22.17349                     -18.32824
                      -3.28431                     -23.12780                     -19.09630
                      -3.41630                     -24.08244                     -19.86540
                      -3.54857                     -25.03733                     -20.63563
                      -3.68116                     -25.99244                     -21.40703
                      -3.81411                     -26.94792                     -22.17971
                      -3.94735                     -27.90439                     -22.95318
                      -4.08097                     -28.86180                     -23.72773
                      -4.21498                     -29.82024                     -24.50328
                      -4.34940                     -30.77980                     -25.27973
                      -4.48419                     -31.74064                     -26.05680
                      -4.61935                     -32.70283                     -26.83428
                      -4.75488                     -33.66635                     -27.61201
                      -4.89080                     -34.63157                     -28.38993
                      -5.02712                     -35.59868                     -29.16803
                      -5.16383                     -36.56783                     -29.94603
                      -5.30089                     -37.53911                     -30.72370
                      -5.43828                     -38.51256                     -31.50077
                      -5.57605                     -39.48780                     -32.27739
                      -5.71422                     -40.46464                     -33.05361
                      -5.85280                     -41.44285                     -33.82939
                      -5.99175                     -42.42263                     -34.60457
                      -6.13105                     -43.40381                     -35.37894
                      -6.27065                     -44.38614                     -36.15233
                      -6.41054                     -45.36915                     -36.92475
                      -6.55072                     -46.35231                     -37.69630
                      -6.69109                     -47.33505                     -38.46663
                      -6.82052                     -48.36364                     -39.17910
        </DataArray>
        <DataArray type="Float32" Name="OrientationX" NumberOfComponents="3" format="ascii">
                       0.98907                      -0.12993                       0.06968
                       0.98915                      -0.12903                       0.07028
                       0.98975                      -0.12437                       0.07019
                       0.99098                      -0.11644                       0.06641
                       0.99245                      -0.10820                       0.05771
                       0.99396                      -0.10012                       0.04498
                       0.99528                      -0.09259                       0.02917
                       0.99628                      -0.08540                       0.01185
                       0.99709                      -0.07611                      -0.00364
                       0.99774                      -0.06518                      -0.01648
                       0.99802                      -0.05616                      -0.02833
                       0.99793                      -0.05048                      -0.03993
                       0.99758                      -0.04675                      -0.05140
                       0.99715                      -0.04250                      -0.06240
                       0.99661                      -0.03817                      -0.07282
                       0.99595                      -0.03439                      -0.08302
                       0.99518                      -0.03133                      -0.09295
                       0.99436                      -0.02876                      -0.10213
                       0.99361                      -0.02585                      -0.10990
                       0.99298                      -0.02241                      -0.11612
                       0.99246                      -0.01850                      -0.12120
                       0.99192                      -0.01493                      -0.12600
                       0.99125                      -0.01267                      -0.13138
                       0.99046                      -0.01164                      -0.13731
                       0.98954                      -0.01178                      -0.14380
                       0.98851                      -0.01267                      -0.15061
                       0.98764                      -0.01251                      -0.15624
                       0.98699                      -0.01107                      -0.16039
                       0.98639                      -0.00958                      -0.16413
                       0.98570                      -0.00897                      -0.16826
                       0.98483                      -0.00960                      -0.17325
                       0.98376                      -0.01134                      -0.17910
                       0.98249                      -0.01405                      -0.18579
                       0.98099                      -0.01740                      -0.19326
                       0.97946                      -0.02005                      -0.20064
                       0.97799                      -0.02112                      -0.20758
                       0.97636                      -0.02162                      -0.21507
                       0.97460                      -0.02242                      -0.22283
                       0.97276                      -0.02374                      -0.23058
                       0.97090                      -0.02589                      -0.23806
                       0.96915                      -0.02875                      -0.24479
                       0.96775                      -0.03286                      -0.24978
                       0.96664                      -0.03713                      -0.25343
                       0.96576                      -0.04115                      -0.25617
                       0.96499                      -0.04532                      -0.25832
                       0.96438                      -0.04956                      -0.25983
                       0.96397                      -0.05378                      -0.26050
                       0.96378                      -0.05825                      -0.26026
                       0.96393                      -0.06231                      -0.25874
                       0.96411                      -0.06727                      -0.25684
        </DataArray>
        <DataArray type="Float32" Name="OrientationY" NumberOfComponents="3" format="ascii">
                       0.13665                       0.63055                      -0.76402
                       0.13655                       0.63072                      -0.76390
                       0.13354                       0.63182                      -0.76352
                       0.12560                       0.63357                      -0.76343
                       0.11367                       0.63511                      -0.76401
                       0.09872                       0.63638                      -0.76503
                       0.08174                       0.63734                      -0.76624
                       0.06383                       0.63811                      -0.76730
                       0.04599                       0.63921                      -0.76766
                       0.02916                       0.64048                      -0.76742
                       0.01431                       0.64134                      -0.76712
                       0.00178                       0.64170                      -0.76696
                      -0.00944                       0.64180                      -0.76681
                      -0.02061                       0.64196                      -0.76646
                      -0.03138                       0.64212                      -0.76597
                      -0.04163                       0.64220                      -0.76541
                      -0.05121                       0.64222                      -0.76481
                      -0.05992                       0.64221                      -0.76418
                      -0.06774                       0.64223                      -0.76351
                      -0.07471                       0.64229                      -0.76282
                      -0.08110                       0.64234                      -0.76211
                      -0.08705                       0.64236                      -0.76144
                      -0.09263                       0.64229                      -0.76084
                      -0.09785                       0.64216                      -0.76030
                      -0.10277                       0.64199                      -0.75979
                      -0.10746                       0.64179                      -0.75931
                      -0.11191                       0.64162                      -0.75881
                      -0.11604                       0.64146                      -0.75833
                      -0.11988                       0.64127                      -0.75790
                      -0.12348                       0.64104                      -0.75751
                      -0.12696                       0.64077                      -0.75716
                      -0.13040                       0.64048                      -0.75683
                      -0.13389                       0.64017                      -0.75648
                      -0.13760                       0.63986                      -0.75607
                      -0.14168                       0.63954                      -0.75559
                      -0.14644                       0.63922                      -0.75495
                      -0.15197                       0.63890                      -0.75413
                      -0.15754                       0.63856                      -0.75328
                      -0.16279                       0.63821                      -0.75246
                      -0.16732                       0.63785                      -0.75177
                      -0.17085                       0.63748                      -0.75129
                      -0.17229                       0.63705                      -0.75132
                      -0.17261                       0.63660                      -0.75163
                      -0.17239                       0.63614                      -0.75207
                      -0.17162                       0.63569                      -0.75263
                      -0.17031                       0.63526                      -0.75328
                      -0.16836                       0.63486                      -0.75406
                      -0.16554                       0.63449                      -0.75500
                      -0.16195                       0.63414                      -0.75607
                      -0.15751                       0.63382                      -0.75727
        </DataArray>
        <DataArray type="Float32" Name="OrientationZ" NumberOfComponents="3" format="ascii">
                       0.05533                       0.76519                       0.64142
                       0.05424                       0.76521                       0.64149
                       0.05061                       0.76507                       0.64195
                       0.04682                       0.76488                       0.64247
                       0.04602                       0.76480                       0.64262
                       0.04797                       0.76485                       0.64242
                       0.05235                       0.76500                       0.64189
                       0.05796                       0.76520                       0.64118
                       0.06076                       0.76526                       0.64085
                       0.06058                       0.76521                       0.64093
                       0.06125                       0.76520                       0.64087
                       0.06434                       0.76530                       0.64045
                       0.06884                       0.76544                       0.63981
                       0.07263                       0.76556                       0.63925
                       0.07599                       0.76566                       0.63874
                       0.07964                       0.76576                       0.63817
                       0.08366                       0.76588                       0.63752