<?xml version="1.0"?>
<VTKFile type="PolyData" version="0.1" byte_order="LittleEndian">
  <PolyData>
    <Piece NumberOfPoints="     50" NumberOfVerts="  0" NumberOfLines="     49"
           NumberOfStrips="  0" NumberOfPolys="      0">
      <Points>
        <DataArray type="Float32" NumberOfComponents="3" format="ascii">
                      20.11872                       2.64066                     152.96106
                      20.31030                       4.23681                     154.72848
                      20.50049                       5.80551                     156.51922
                      20.68425                       7.31982                     158.35651
                      20.86694                       8.79754                     160.22478
                      21.05354                      10.25558                     162.10923
                      21.24817                      11.71259                     163.99366
                      21.45319                      13.19460                     165.85571
                      21.66781                      14.71269                     167.68597
                      21.88290                      16.22530                     169.52058
                      22.09756                      17.73808                     171.35492
                      22.31477                      19.26268                     173.17882
                      22.54016                      20.81362                     174.97928
                      22.77446                      22.37994                     176.76542
                      23.01711                      23.94265                     178.55345
                      23.26884                      25.50141                     180.34351
                      23.53021                      27.05764                     182.13430
                      23.80230                      28.61130                     183.92563
                      24.08338                      30.16395                     185.71640
                      24.36937                      31.71649                     187.50651
                      24.65762                      33.26927                     189.29623
                      24.94573                      34.82210                     191.08633
                      25.23665                      36.37418                     192.87717
                      25.53424                      37.92489                     194.66871
                      25.84090                      39.47447                     196.46038
                      26.16011                      41.02270                     198.25170
                      26.49199                      42.56949                     200.04273
                      26.82931                      44.11519                     201.83494
                      27.17038                      45.66110                     203.62788
                      27.51560                      47.20699                     205.42199
                      27.86915                      48.75297                     207.21641
                      28.23411                      50.29914                     209.01044
                      28.61417                      51.84580                     210.80290
                      29.01175                      53.39307                     212.59299
                      29.42926                      54.94094                     214.37991
                      29.86172                      56.49006                     216.16455
                      30.30738                      58.04078                     217.94721
                      30.76780                      59.59342                     219.72711
                      31.24354                      61.14820                     221.50376
                      31.73598                      62.70524                     223.27640
                      32.24613                      64.26380                     225.04501
                      32.77351                      65.82353                     226.80974
                      33.31789                      67.38410                     228.57051
                      33.87606                      68.94605                     230.32766
                      34.44755                      70.50931                     232.08087
                      35.03138                      72.07369                     233.83001
                      35.62656                      73.63860                     235.57516
                      36.23108                      75.20333                     237.31685
                      36.84446                      76.76742                     239.05444
                      37.44811                      78.43868                     240.69811
        </DataArray>
      </Points>
      <PointData>
        <DataArray type="Float32" Name="TranslationalVelocity" NumberOfComponents="3" format="ascii">
                       0.01625                      -2.31779                       1.85482
                       0.24199                      -3.67645                       3.05736
                       0.46401                      -5.05261                       4.23931
                       0.67869                      -6.46320                       5.38046
                       0.88848                      -7.89733                       6.49429
                       1.09571                      -9.34465                       7.59356
                       1.30296                     -10.79356                       8.69235
                       1.51381                     -12.22755                       9.81035
                       1.72981                     -13.63944                      10.95594
                       1.94535                     -15.05526                      12.09782
                       2.16124                     -16.47138                      13.24025
                       2.37910                     -17.88056                      14.39202
                       2.60093                     -19.27370                      15.56412
                       2.82527                     -20.65780                      16.74825
                       3.04956                     -22.04503                      17.93004
                       3.27376                     -23.43558                      19.10920
                       3.49808                     -24.82852                      20.28679
                       3.72253                     -26.22386                      21.46275
                       3.94733                     -27.62050                      22.63825
                       4.17261                     -29.01780                      23.81398
                       4.39843                     -30.41555                      24.99020
                       4.62475                     -31.81401                      26.16676
                       4.85147                     -33.21384                      27.34304
                       5.07850                     -34.61555                      28.51854
                       5.30585                     -36.01905                      29.69344
                       5.53349                     -37.42447                      30.86753
                       5.76139                     -38.83187                      32.04077
                       5.98960                     -40.24137                      33.21345
                       6.21830                     -41.65240                      34.38658
                       6.44743                     -43.06536                      35.56000
                       6.67700                     -44.48022                      36.73380
                       6.90700                     -45.89689                      37.90803
                       7.13746                     -47.31503                      39.08292
                       7.36837                     -48.73439                      40.25858
                       7.59971                     -50.15475                      41.43499
                       7.83156                     -51.57608                      42.61269
                       8.06395                     -52.99841                      43.79200
                       8.29691                     -54.42136                      44.97314
                       8.53045                     -55.84467                      46.15631
                       8.76457                     -57.26795                      47.34160
                       8.99914                     -58.69136                      48.52843
                       9.23409                     -60.11490                      49.71653
                       9.46934                     -61.53850                      50.90566
                       9.70494                     -62.96189                      52.09621
                       9.94085                     -64.38474                      53.28810
                      10.17700                     -65.80673                      54.48114
                      10.41328                     -67.22770                      55.67482
                      10.64954                     -68.64766                      56.86853
                      10.88567                     -70.06591                      58.06179
                      11.13641                     -71.41090                      59.33714
        </DataArray>
        <DataArray type="Float32" Name="RotationalVelocity" NumberOfComponents="3" format="ascii">
                       0.75371                       0.00274                      -0.13839
                       0.75376                       0.00274                      -0.13840
                       0.75385                       0.00275                      -0.13841
                       0.75400                       0.00277                      -0.13844
                       0.75420                       0.00279                      -0.13848
                       0.75443                       0.00283                      -0.13853
                       0.75469                       0.00288                      -0.13859
                       0.75497                       0.00294                      -0.13867
                       0.75526                       0.00301                      -0.13875
                       0.75555                       0.00310                      -0.13885
                       0.75585                       0.00319                      -0.13896
                       0.75615                       0.00330                      -0.13908
                       0.75644                       0.00342                      -0.13920
                       0.75673                       0.00354                      -0.13933
                       0.75701                       0.00367                      -0.13947
                       0.75727                       0.00381                      -0.13961
                       0.75753                       0.00395                      -0.13975
                       0.75778                       0.00410                      -0.13990
                       0.75802                       0.00425                      -0.14004
                       0.75824                       0.00440                      -0.14019
                       0.75847                       0.00455                      -0.14034
                       0.75868                       0.00470                      -0.14048
                       0.75889                       0.00485                      -0.14063
                       0.75910                       0.00499                      -0.14077
                       0.75931                       0.00514                      -0.14091
                       0.75952                       0.00528                      -0.14105
                       0.75973                       0.00542                      -0.14118
                       0.75994                       0.00555                      -0.14132
                       0.76017                       0.00568                      -0.14144
                       0.76040                       0.00580                      -0.14157
                       0.76064                       0.00592                      -0.14169
                       0.76089                       0.00603                      -0.14181
                       0.76115                       0.00613                      -0.14192
                       0.76142                       0.00623                      -0.14203
                       0.76170                       0.00633                      -0.14213
                       0.76199                       0.00642                      -0.14223
                       0.76229                       0.00650                      -0.14233
                       0.76260                       0.00657                      -0.14242
                       0.76292                       0.00664                      -0.14250
                       0.76323                       0.00670                      -0.14258
                       0.76354                       0.00676                      -0.14266
                       0.76385                       0.00681                      -0.14272
                       0.76414                       0.00685                      -0.14278
                       0.76442                       0.00688                      -0.14284
                       0.76467                       0.00690                      -0.14288
                       0.76488                       0.00692                      -0.14291
                       0.76505                       0.00692                      -0.14293
                       0.76517                       0.00691                      -0.14293
                       0.76522                       0.00690                      -0.14292
                       0.76521                       0.00688                      -0.14291
        </DataArray>
        <DataArray type="Float32" Name="TranslationalAcceleration" NumberOfComponents="3" format="ascii">
                      -0.32857                      -1.51915                      -1.75686
                      -0.51425                      -2.45620                      -2.78195
                      -0.70243                      -3.37736                      -3.82022
                      -0.89552                      -4.26704                      -4.88448
                      -1.09200                      -5.13582                      -5.96658
                      -1.29042                      -5.99377                      -7.05875
                      -1.48912                      -6.85191                      -8.15229
                      -1.68576                      -7.72565                      -9.23476
                      -1.87930                      -8.62160                     -10.30072
                      -2.07344                      -9.51536                     -11.36980
                      -2.26767                     -10.41029                     -12.43930
                      -2.46091                     -11.31325                     -13.50371
                      -2.65187                     -12.23281                     -14.55613
                      -2.84151                     -13.16250                     -15.60185
                      -3.03159                     -14.09110                     -16.65005
                      -3.22212                     -15.01837                     -17.70092
                      -3.41299                     -15.94510                     -18.75373
                      -3.60418                     -16.87124                     -19.80850
                      -3.79556                     -17.79768                     -20.86439
                      -3.98702                     -18.72492                     -21.92090
                      -4.17856                     -19.65315                     -22.97789
                      -4.37021                     -20.58225                     -24.03554
                      -4.56210                     -21.51170                     -25.09436
                      -4.75431                     -22.44112                     -26.15473
                      -4.94686                     -23.37063                     -27.21660
                      -5.13979                     -24.30007                     -28.28004
                      -5.33313                     -25.22938                     -29.34511
                      -5.52692                     -26.15883                     -30.41192
                      -5.72111                     -27.08921                     -31.48000
                      -5.91580                     -28.02041                     -32.54971
                      -6.11099                     -28.95251                     -33.62098
                      -6.30673                     -29.88559                     -34.69377
                      -6.50298                     -30.81983                     -35.76781
                      -6.69975                     -31.75533                     -36.84292
                      -6.89703                     -32.69211                     -37.91892
                      -7.09485                     -33.63062                     -38.99579
                      -7.29324                     -34.57112                     -40.07354
                      -7.49217                     -35.51382                     -41.15190
                      -7.69163                     -36.45887                     -42.23064
                      -7.89157                     -37.40634                     -43.30945
                      -8.09205                     -38.35579                     -44.38845
                      -8.29308                     -39.30698                     -45.46764
                      -8.49465                     -40.25968                     -46.54693
                      -8.69673                     -41.21418                     -47.62611
                      -8.89926                     -42.17032                     -48.70491
                      -9.10220                     -43.12788                     -49.78305
                      -9.30549                     -44.08635                     -50.86039
                      -9.50910                     -45.04508                     -51.93690
                      -9.71289                     -46.00353                     -53.01202
                      -9.90592                     -47.02616                     -54.03034
        </DataArray>
        <DataArray type="Float32" Name="OrientationX" NumberOfComponents="3" format="ascii">
                       0.98001                      -0.19115                       0.05515
                       0.98012                      -0.19037                       0.05589
                       0.98096                      -0.18581                       0.05657
                       0.98264                      -0.17745                       0.05414
                       0.98467                      -0.16800                       0.04691
                       0.98679                      -0.15805                       0.03567
                       0.98874                      -0.14813                       0.02129
                       0.99038                      -0.13829                       0.00537
                       0.99191                      -0.12668                      -0.00842
                       0.99331                      -0.11387                      -0.01933
                       0.99423                      -0.10310                      -0.02957
                       0.99461                      -0.09565                      -0.04014
                       0.99463                      -0.09011                      -0.05091
                       0.99458                      -0.08415                      -0.06112
                       0.99442                      -0.07820                      -0.07075
                       0.99411                      -0.07282                      -0.08027
                       0.99364                      -0.06820                      -0.08963
                       0.99308                      -0.06417                      -0.09834
                       0.99259                      -0.06005                      -0.10560
                       0.99223                      -0.05566                      -0.11125
                       0.99197                      -0.05101                      -0.11569
                       0.99168                      -0.04674                      -0.11991
                       0.99121                      -0.04366                      -0.12492
                       0.99055                      -0.04169                      -0.13067
                       0.98971                      -0.04077                      -0.13718
                       0.98873                      -0.04053                      -0.14412
                       0.98794                      -0.03946                      -0.14972
                       0.98742                      -0.03738                      -0.15365
                       0.98694                      -0.03532                      -0.15716
                       0.98633                      -0.03405                      -0.16120
                       0.98550                      -0.03386                      -0.16629
                       0.98442                      -0.03461                      -0.17241
                       0.98309                      -0.03615                      -0.17952
                       0.98152                      -0.03818                      -0.18750
                       0.97995                      -0.03954                      -0.19527
                       0.97852                      -0.03941                      -0.20235
                       0.97697                      -0.03862                      -0.20986
                       0.97527                      -0.03807                      -0.21770
                       0.97348                      -0.03802                      -0.22560
                       0.97161                      -0.03883                      -0.23338
                       0.96980                      -0.04047                      -0.24053
                       0.96825                      -0.04365                      -0.24616
                       0.96697                      -0.04720                      -0.25049
                       0.96591                      -0.05068                      -0.25388
                       0.96496                      -0.05441                      -0.25671
                       0.96414                      -0.05831                      -0.25891
                       0.96352                      -0.06234                      -0.26028
                       0.96309                      -0.06677                      -0.26078
                       0.96300                      -0.07104                      -0.25996
                       0.96289                      -0.07624                      -0.25890
        </DataArray>
        <DataArray type="Float32" Name="OrientationY" NumberOfComponents="3" format="ascii">
                       0.18077                       0.73985                      -0.64803
                       0.18067                       0.74000                      -0.64789
                       0.17772                       0.74118                      -0.64735
                       0.16988                       0.74330                      -0.64703
                       0.15805                       0.74555                      -0.64744
                       0.14320                       0.74775                      -0.64835
                       0.12632                       0.74978                      -0.64951
                       0.10848                       0.75166                      -0.65056
                       0.09074                       0.75375                      -0.65087
                       0.07399                       0.75585                      -0.65056
                       0.05920                       0.75743                      -0.65023
                       0.04670                       0.75842                      -0.65009
                       0.03550                       0.75910                      -0.65001
                       0.02436                       0.75979                      -0.64972
                       0.01360                       0.76043                      -0.64928
                       0.00336                       0.76097                      -0.64878
                      -0.00622                       0.76140                      -0.64825
                      -0.01492                       0.76175                      -0.64769
                      -0.02274                       0.76208                      -0.64708
                      -0.02971                       0.76239                      -0.64643
                      -0.03609                       0.76268                      -0.64577
                      -0.04205                       0.76290                      -0.64514
                      -0.04763                       0.76304                      -0.64459
                      -0.05285                       0.76310                      -0.64411
                      -0.05778                       0.76312                      -0.64367
                      -0.06248                       0.76310                      -0.64325
                      -0.06694                       0.76309                      -0.64282
                      -0.07108                       0.76307                      -0.64239
                      -0.07492                       0.76303                      -0.64201
                      -0.07853                       0.76293                      -0.64169
                      -0.08202                       0.76280                      -0.64141
                      -0.08548                       0.76265                      -0.64114
                      -0.08898                       0.76248                      -0.64086
                      -0.09271                       0.76231                      -0.64054
                      -0.09680                       0.76215                      -0.64012
                      -0.10157                       0.76199                      -0.63958
                      -0.10712                       0.76184                      -0.63885
                      -0.11270                       0.76167                      -0.63809
                      -0.11797                       0.76148                      -0.63737
                      -0.12253                       0.76126                      -0.63676
                      -0.12608                       0.76101                      -0.63637
                      -0.12752                       0.76068                      -0.63647
                      -0.12786                       0.76031                      -0.63685
                      -0.12765                       0.75992                      -0.63736
                      -0.12690                       0.75953                      -0.63797
                      -0.12560                       0.75915                      -0.63868
                      -0.12366                       0.75878                      -0.63950
                      -0.12084                       0.75842                      -0.64047
                      -0.11727                       0.75806                      -0.64156
                      -0.11283                       0.75770                      -0.64277
        </DataArray>
        <DataArray type="Float32" Name="OrientationZ" NumberOfComponents="3" format="ascii">
                       0.08306                       0.64505                       0.75961
                       0.08198                       0.64511                       0.75968
                       0.07835                       0.64508                       0.76009
                       0.07457                       0.64499                       0.76054
                       0.07380                       0.64493                       0.76067
                       0.07580                       0.64489                       0.76050
                       0.08025                       0.64489                       0.76005
                       0.08593                       0.64489                       0.75943
                       0.08880                       0.64484                       0.75914
                       0.08869                       0.64477                       0.75921
                       0.08944                       0.64472                       0.75917
                       0.09262                       0.64471                       0.75879
                       0.09722                       0.64471                       0.75822
                       0.10111                       0.64470                       0.75772
                       0.10457                       0.64470                       0.75725
                       0.10833                       0.64469                       0.75673
                       0.11245                       0.64468                       0.75613