<?xml version="1.0"?>
<VTKFile type="PolyData" version="0.1" byte_order="LittleEndian">
  <PolyData>
    <Piece NumberOfPoints="     50" NumberOfVerts="  0" NumberOfLines="     49"
           NumberOfStrips="  0" NumberOfPolys="      0">
      <Points>
        <DataArray type="Float32" NumberOfComponents="3" format="ascii">
                      20.67592                      -0.41067                     145.95441
                      20.13027                      -0.17978                     143.63986
                      19.58054                       0.08662                     141.33105
                      19.01908                       0.42316                     139.03452
                      18.45281                       0.80720                     136.74556
                      17.88825                       1.21721                     134.45973
                      17.33122                       1.62934                     132.17247
                      16.78662                       2.01007                     129.87817
                      16.25478                       2.34502                     127.57488
                      15.72263                       2.68751                     125.27288
                      15.18981                       3.03026                     122.97122
                      14.66041                       3.35837                     120.66691
                      14.14137                       3.65322                     118.35583
                      13.63231                       3.92895                     116.04000
                      13.13080                       4.21008                     113.72330
                      12.63752                       4.49704                     111.40564
                      12.15316                       4.78795                     109.08667
                      11.67877                       5.08281                     106.76620
                      11.21278                       5.37954                     104.44429
                      10.75120                       5.67699                     102.12155
                      10.29136                       5.97475                      99.79838
                       9.83075                       6.27325                      97.47514
                       9.37216                       6.57362                      95.15133
                       8.91929                       6.87669                      92.82629
                       8.47448                       7.18218                      90.49950
                       8.04118                       7.49029                      88.17038
                       7.61943                       7.80114                      85.83893
                       7.20185                       8.11475                      83.50616
                       6.78672                       8.42971                      81.17194
                       6.37428                       8.74658                      78.83605
                       5.96863                       9.06516                      76.49771
                       5.57283                       9.38527                      74.15639
                       5.19060                       9.70633                      71.81149
                       4.82437                      10.02797                      69.46271
                       4.47660                      10.34996                      67.10983
                       4.14217                      10.67193                      64.75331
                       3.81921                      10.99370                      62.39324
                       3.50935                      11.31470                      60.02941
                       3.21316                      11.63453                      57.66177
                       2.93213                      11.95271                      55.29027
                       2.66730                      12.26989                      52.91514
                       2.41820                      12.58632                      50.53665
                       2.18468                      12.90214                      48.15513
                       1.96355                      13.21680                      45.77092
                       1.75447                      13.53001                      43.38437
                       1.55664                      13.84161                      40.99594
                       1.36925                      14.15182                      38.60624
                       1.19044                      14.46114                      36.21603
                       1.02013                      14.76921                      33.82610
                       0.85104                      14.93559                      31.41845
        </DataArray>
      </Points>
      <PointData>
        <DataArray type="Float32" Name="TranslationalVelocity" NumberOfComponents="3" format="ascii">
                       0.19758                       2.77507                       0.40489
                       0.21594                       4.48485                       0.57113
                       0.23882                       6.19089                       0.76254
                       0.27062                       7.88936                       1.00368
                       0.30841                       9.58255                       1.27841
                       0.34940                      11.27268                       1.57141
                       0.39052                      12.96214                       1.86575
                       0.42745                      14.65423                       2.13766
                       0.45833                      16.35021                       2.37703
                       0.48991                      18.04445                       2.62163
                       0.52122                      19.73763                       2.86634
                       0.55033                      21.43135                       3.10063
                       0.57484                      23.12765                       3.31134
                       0.59653                      24.82516                       3.50849
                       0.61846                      26.52146                       3.70942
                       0.64067                      28.21656                       3.91440
                       0.66289                      29.91064                       4.12213
                       0.68510                      31.60375                       4.33258
                       0.70703                      33.29605                       4.54432
                       0.72853                      34.98764                       4.75655
                       0.74954                      36.67861                       4.96901
                       0.77012                      38.36901                       5.18202
                       0.79041                      40.05888                       5.39636
                       0.81049                      41.74823                       5.61259
                       0.83034                      43.43713                       5.83048
                       0.85000                      45.12557                       6.05015
                       0.86947                      46.81352                       6.27167
                       0.88877                      48.50119                       6.49510
                       0.90774                      50.18887                       6.71946
                       0.92646                      51.87666                       6.94515
                       0.94491                      53.56455                       7.17197
                       0.96307                      55.25252                       7.39976
                       0.98089                      56.94049                       7.62806
                       0.99832                      58.62833                       7.85658
                       1.01535                      60.31587                       8.08512
                       1.03197                      62.00337                       8.31346
                       1.04815                      63.69098                       8.54148
                       1.06385                      65.37861                       8.76876
                       1.07904                      67.06620                       8.99499
                       1.09366                      68.75359                       9.21982
                       1.10784                      70.44051                       9.44369
                       1.12161                      72.12682                       9.66677
                       1.13504                      73.81235                       9.88915
                       1.14808                      75.49730                      10.11049
                       1.16073                      77.18155                      10.33058
                       1.17302                      78.86497                      10.54933
                       1.18502                      80.54739                      10.76691
                       1.19683                      82.22866                      10.98370
                       1.20846                      83.90847                      11.19947
                       1.20258                      85.60045                      11.31678
        </DataArray>
        <DataArray type="Float32" Name="RotationalVelocity" NumberOfComponents="3" format="ascii">
                       0.70885                       0.00471                      -0.12672
                       0.70880                       0.00471                      -0.12671
                       0.70869                       0.00471                      -0.12668
                       0.70851                       0.00472                      -0.12663
                       0.70827                       0.00475                      -0.12657
                       0.70799                       0.00478                      -0.12650
                       0.70768                       0.00483                      -0.12641
                       0.70734                       0.00490                      -0.12632
                       0.70699                       0.00499                      -0.12622
                       0.70663                       0.00509                      -0.12611
                       0.70626                       0.00521                      -0.12600
                       0.70590                       0.00535                      -0.12589
                       0.70554                       0.00550                      -0.12578
                       0.70518                       0.00567                      -0.12567
                       0.70484                       0.00585                      -0.12556
                       0.70450                       0.00603                      -0.12545
                       0.70418                       0.00623                      -0.12534
                       0.70387                       0.00643                      -0.12523
                       0.70357                       0.00664                      -0.12513
                       0.70328                       0.00685                      -0.12503
                       0.70300                       0.00706                      -0.12493
                       0.70272                       0.00728                      -0.12483
                       0.70245                       0.00749                      -0.12474
                       0.70219                       0.00770                      -0.12464
                       0.70192                       0.00791                      -0.12455
                       0.70166                       0.00812                      -0.12445
                       0.70139                       0.00832                      -0.12436
                       0.70112                       0.00851                      -0.12426
                       0.70084                       0.00870                      -0.12417
                       0.70055                       0.00888                      -0.12407
                       0.70025                       0.00906                      -0.12397
                       0.69994                       0.00923                      -0.12387
                       0.69962                       0.00939                      -0.12377
                       0.69928                       0.00954                      -0.12366
                       0.69893                       0.00968                      -0.12355
                       0.69857                       0.00982                      -0.12344
                       0.69821                       0.00994                      -0.12333
                       0.69783                       0.01006                      -0.12322
                       0.69745                       0.01017                      -0.12311
                       0.69707                       0.01027                      -0.12300
                       0.69669                       0.01036                      -0.12290
                       0.69632                       0.01044                      -0.12279
                       0.69597                       0.01051                      -0.12269
                       0.69564                       0.01057                      -0.12260
                       0.69534                       0.01061                      -0.12252
                       0.69509                       0.01065                      -0.12245
                       0.69488                       0.01067                      -0.12240
                       0.69475                       0.01068                      -0.12236
                       0.69469                       0.01067                      -0.12235
                       0.69470                       0.01066                      -0.12235
        </DataArray>
        <DataArray type="Float32" Name="TranslationalAcceleration" NumberOfComponents="3" format="ascii">
                       0.34918                      -0.25562                       2.01576
                       0.56687                      -0.37386                       3.22776
                       0.78417                      -0.51050                       4.43699
                       1.00072                      -0.68344                       5.64060
                       1.21679                      -0.88080                       6.84013
                       1.43261                      -1.09131                       8.03704
                       1.64844                      -1.30255                       9.23296
                       1.86462                      -1.49714                      10.43014
                       2.08129                      -1.66768                      11.62944
                       2.29793                      -1.84177                      12.82686
                       2.51463                      -2.01566                      14.02286
                       2.73157                      -2.18166                      15.21855
                       2.94894                      -2.33022                      16.41536
                       3.16665                      -2.46864                      17.61234
                       3.38451                      -2.60955                      18.80781
                       3.60255                      -2.75316                      20.00178
                       3.82082                      -2.89850                      21.19442
                       4.03934                      -3.04557                      22.38577
                       4.25817                      -3.19331                      23.57596
                       4.47734                      -3.34115                      24.76507
                       4.69688                      -3.48891                      25.95316
                       4.91685                      -3.63680                      27.14027
                       5.13727                      -3.78539                      28.32643
                       5.35821                      -3.93509                      29.51167
                       5.57971                      -4.08573                      30.69604
                       5.80179                      -4.23737                      31.87955
                       6.02451                      -4.39009                      33.06217
                       6.24793                      -4.54389                      34.24399
                       6.47211                      -4.69808                      35.42519
                       6.69711                      -4.85291                      36.60581
                       6.92299                      -5.00825                      37.78584
                       7.14977                      -5.16397                      38.96525
                       7.37750                      -5.31972                      40.14397
                       7.60618                      -5.47531                      41.32193
                       7.83585                      -5.63057                      42.49898
                       8.06656                      -5.78535                      43.67525
                       8.29837                      -5.93955                      44.85082
                       8.53129                      -6.09286                      46.02562
                       8.76534                      -6.24508                      47.19961
                       9.00051                      -6.39597                      48.37269
                       9.23680                      -6.54585                      49.54469
                       9.47419                      -6.69486                      50.71553
                       9.71265                      -6.84308                      51.88516
                       9.95220                      -6.99028                      53.05372
                      10.19278                      -7.13635                      54.22121
                      10.43435                      -7.28125                      55.38763
                      10.67682                      -7.42515                      56.55298
                      10.92011                      -7.56838                      57.71730
                      11.16408                      -7.71083                      58.88055
                      11.40921                      -7.78269                      60.05211
        </DataArray>
        <DataArray type="Float32" Name="OrientationX" NumberOfComponents="3" format="ascii">
                       0.94067                       0.28457                      -0.18480
                       0.94046                       0.28459                      -0.18584
                       0.94042                       0.28210                      -0.18981
                       0.94153                       0.27489                      -0.19485
                       0.94417                       0.26349                      -0.19780
                       0.94795                       0.24883                      -0.19867
                       0.95247                       0.23190                      -0.19752
                       0.95715                       0.21386                      -0.19528
                       0.96086                       0.19617                      -0.19562
                       0.96345                       0.17976                      -0.19860
                       0.96570                       0.16514                      -0.20040
                       0.96798                       0.15247                      -0.19943
                       0.97025                       0.14091                      -0.19686
                       0.97224                       0.12945                      -0.19493
                       0.97396                       0.11841                      -0.19333
                       0.97558                       0.10783                      -0.19135
                       0.97711                       0.09785                      -0.18890
                       0.97846                       0.08873                      -0.18640
                       0.97944                       0.08063                      -0.18490
                       0.98005                       0.07354                      -0.18465
                       0.98037                       0.06717                      -0.18539
                       0.98064                       0.06122                      -0.18600
                       0.98113                       0.05546                      -0.18521
                       0.98182                       0.04990                      -0.18312
                       0.98270                       0.04447                      -0.17977
                       0.98367                       0.03918                      -0.17564
                       0.98432                       0.03432                      -0.17303
                       0.98459                       0.03005                      -0.17228
                       0.98478                       0.02611                      -0.17181
                       0.98512                       0.02230                      -0.17042
                       0.98569                       0.01841                      -0.16756
                       0.98647                       0.01438                      -0.16333
                       0.98741                       0.01014                      -0.15786
                       0.98845                       0.00555                      -0.15144
                       0.98933                       0.00067                      -0.14566
                       0.98993                      -0.00469                      -0.14145
                       0.99045                      -0.01082                      -0.13744
                       0.99097                      -0.01704                      -0.13302
                       0.99148                      -0.02299                      -0.12818
                       0.99203                      -0.02828                      -0.12276
                       0.99258                      -0.03255                      -0.11715
                       0.99317                      -0.03465                      -0.11144
                       0.99370                      -0.03551                      -0.10631
                       0.99416                      -0.03571                      -0.10188
                       0.99460                      -0.03533                      -0.09762
                       0.99501                      -0.03435                      -0.09363
                       0.99540                      -0.03266                      -0.09009
                       0.99577                      -0.03004                      -0.08680
                       0.99607                      -0.02653                      -0.08451
                       0.99641                      -0.02223                      -0.08163
        </DataArray>
        <DataArray type="Float32" Name="OrientationY" NumberOfComponents="3" format="ascii">
                       0.25124                      -0.95021                      -0.18434
                       0.25107                      -0.95021                      -0.18455
                       0.24793                      -0.95096                      -0.18496
                       0.24007                      -0.95306                      -0.18452
                       0.22861                      -0.95624                      -0.18258
                       0.21442                      -0.96012                      -0.17944
                       0.19840                      -0.96429                      -0.17545
                       0.18146                      -0.96839                      -0.17115
                       0.16436                      -0.97208                      -0.16750
                       0.14803                      -0.97520                      -0.16455
                       0.13362                      -0.97773                      -0.16182
                       0.12153                      -0.97974                      -0.15920
                       0.11073                      -0.98142                      -0.15672
                       0.09992                      -0.98295                      -0.15438
                       0.08945                      -0.98429                      -0.15220
                       0.07948                      -0.98547                      -0.15013
                       0.07014                      -0.98647                      -0.14819
                       0.06163                      -0.98730                      -0.14645
                       0.05396                      -0.98796                      -0.14500
                       0.04708                      -0.98849                      -0.14378
                       0.04076                      -0.98892                      -0.14273
                       0.03487                      -0.98929                      -0.14173
                       0.02938                      -0.98961                      -0.14073
                       0.02425                      -0.98989                      -0.13973
                       0.01942                      -0.99014                      -0.13876
                       0.01483                      -0.99035                      -0.13782
                       0.01046                      -0.99052                      -0.13697
                       0.00640                      -0.99066                      -0.13621
                       0.00263                      -0.99078                      -0.13549
                      -0.00089                      -0.99088                      -0.13478
                      -0.00428                      -0.99096                      -0.13406
                      -0.00763                      -0.99104                      -0.13333
                      -0.01102                      -0.99111                      -0.13259
                      -0.01463                      -0.99117                      -0.13182
                      -0.01862                      -0.99121                      -0.13101
                      -0.02328                      -0.99123                      -0.13009
                      -0.02874                      -0.99122                      -0.12905
                      -0.03423                      -0.99118                      -0.12801
                      -0.03941                      -0.99112                      -0.12703
                      -0.04387                      -0.99104                      -0.12617
                      -0.04731                      -0.99097                      -0.12545
                      -0.04860                      -0.99096                      -0.12501
                      -0.04875                      -0.99100                      -0.12468
                      -0.04835                      -0.99105                      -0.12441
                      -0.04740                      -0.99112                      -0.12421
                      -0.04589                      -0.99121                      -0.12410
                      -0.04375                      -0.99131                      -0.12407
                      -0.04074                      -0.99142                      -0.12418
                      -0.03697                      -0.99155                      -0.12438
                      -0.03234                      -0.99167                      -0.12472
        </DataArray>
        <DataArray type="Float32" Name="OrientationZ" NumberOfComponents="3" format="ascii">
                      -0.22806                       0.12697                      -0.96533
                      -0.22910                       0.12690                      -0.96509
                      -0.23267                       0.12688                      -0.96424
                      -0.23642                       0.12695                      -0.96332
                      -0.23726                       0.12717                      -0.96309
                      -0.23540                       0.12750                      -0.96350
                      -0.23116                       0.12792                      -0.96447
                      -0.22571                       0.12838                      -0.96570
                      -0.22302                       0.12879                      -0.96627
                      -0.22326                       0.12914                      -0.96617
                      -0.22266                       0.12949                      -0.96626
                      -0.21967                       0.12987                      -0.96689
                      -0.21528                       0.13026                      -0.96783
                      -0.21158                       0.13061                      -0.96859
                      -0.20832                       0.13094                      -0.96926
                      -0.20476                       0.13125                      -0.96997
                      -0.20084                       0.13155                      -0.97075