<?xml version="1.0"?>
<VTKFile type="PolyData" version="0.1" byte_order="LittleEndian">
  <PolyData>
    <Piece NumberOfPoints="     50" NumberOfVerts="  0" NumberOfLines="     49"
           NumberOfStrips="  0" NumberOfPolys="      0">
      <Points>
        <DataArray type="Float32" NumberOfComponents="3" format="ascii">
                      24.56506                       3.18622                     147.70098
                      24.15806                       5.03855                     146.24792
                      23.75133                       6.91219                     144.82392
                      23.34145                       8.82774                     143.45819
                      22.93254                      10.77167                     142.13101
                      22.52840                      12.73114                     140.82367
                      22.13190                      14.69183                     139.51583
                      21.74377                      16.63345                     138.17970
                      21.36251                      18.54717                     136.80382
                      20.98159                      20.46488                     135.43355
                      20.59972                      22.38214                     134.06314
                      20.21912                      24.29005                     132.67983
                      19.84444                      26.17752                     131.26729
                      19.47701                      28.05311                     129.83686
                      19.11739                      29.93171                     128.40861
                      18.76632                      31.81359                     126.98275
                      18.42423                      33.69763                     125.55768
                      18.09216                      35.58384                     124.13323
                      17.76830                      37.47094                     122.70811
                      17.44852                      39.35816                     121.28221
                      17.13012                      41.24530                     119.85568
                      16.81064                      43.13272                     118.42927
                      16.49304                      45.02122                     117.00322
                      16.18115                      46.91143                     115.57744
                      15.87729                      48.80322                     114.15121
                      15.58493                      50.69673                     112.72404
                      15.30417                      52.59204                     111.29601
                      15.02767                      54.48934                     109.86829
                      14.75358                      56.38795                     108.43986
                      14.48224                      58.28836                     107.01093
                      14.21777                      60.19046                     105.58054
                      13.96321                      62.09414                     104.14796
                      13.72222                      63.99892                     102.71210
                      13.49723                      65.90445                     101.27232
                      13.29067                      67.81039                      99.82811
                      13.09743                      69.71679                      98.37984
                      12.91567                      71.62364                      96.92751
                      12.74697                      73.53049                      95.47047
                      12.59186                      75.43699                      94.00834
                      12.45180                      77.34266                      92.54066
                      12.32790                      79.24767                      91.06796
                      12.21977                      81.15207                      89.59067
                      12.12728                      83.05574                      88.10914
                      12.04720                      84.95849                      86.62345
                      11.97919                      86.85993                      85.13372
                      11.92244                      88.75976                      83.64029
                      11.87616                      90.65788                      82.14391
                      11.83858                      92.55442                      80.64568
                      11.80955                      94.44868                      79.14606
                      11.76456                      96.25425                      77.53563
        </DataArray>
      </Points>
      <PointData>
        <DataArray type="Float32" Name="TranslationalVelocity" NumberOfComponents="3" format="ascii">
                       0.74440                       1.74661                       2.26708
                       0.96585                       2.80957                       3.56010
                       1.19017                       3.85219                       4.86787
                       1.42016                       4.85449                       6.20467
                       1.65400                       5.82968                       7.56100
                       1.88993                       6.79026                       8.92779
                       2.12603                       7.75004                      10.29503
                       2.35955                       8.72821                      11.64856
                       2.58929                       9.73291                      12.98224
                       2.81957                      10.73340                      14.31828
                       3.04978                      11.73380                      15.65361
                       3.27871                      12.74273                      16.98202
                       3.50487                      13.77093                      18.29579
                       3.72940                      14.81034                      19.60087
                       3.95430                      15.84696                      20.90761
                       4.17962                      16.88056                      22.21620
                       4.40520                      17.91221                      23.52587
                       4.63106                      18.94190                      24.83663
                       4.85704                      19.97077                      26.14761
                       5.08305                      20.99943                      27.45831
                       5.30910                      22.02810                      28.76863
                       5.53524                      23.05659                      30.07881
                       5.76160                      24.08435                      31.38942
                       5.98829                      25.11099                      32.70084
                       6.21531                      26.13672                      34.01298
                       6.44271                      27.16143                      35.32590
                       6.67052                      28.18507                      36.63964
                       6.89880                      29.20774                      37.95436
                       7.12751                      30.23036                      39.26958
                       7.35674                      31.25274                      40.58563
                       7.58650                      32.27503                      41.90238
                       7.81681                      33.29734                      43.21970
                       8.04764                      34.31995                      44.53721
                       8.27899                      35.34298                      45.85465
                       8.51083                      36.36646                      47.17173
                       8.74322                      37.39077                      48.48848
                       8.97618                      38.41610                      49.80491
                       9.20968                      39.44271                      51.12066
                       9.44371                      40.47076                      52.43548
                       9.67822                      41.50038                      53.74901
                       9.91327                      42.53104                      55.06138
                      10.14887                      43.56249                      56.37262
                      10.38502                      44.59451                      57.68268
                      10.62171                      45.62746                      58.99147
                      10.85889                      46.66130                      60.29876
                      11.09652                      47.69595                      61.60443
                      11.33458                      48.73101                      62.90848
                      11.57305                      49.76601                      64.21112
                      11.81182                      50.80070                      65.51199
                      12.03942                      51.91352                      66.75191
        </DataArray>
        <DataArray type="Float32" Name="RotationalVelocity" NumberOfComponents="3" format="ascii">
                       0.69645                       0.00731                      -0.12530
                       0.69642                       0.00731                      -0.12528
                       0.69635                       0.00730                      -0.12527
                       0.69625                       0.00729                      -0.12526
                       0.69612                       0.00726                      -0.12525
                       0.69596                       0.00724                      -0.12524
                       0.69578                       0.00721                      -0.12523
                       0.69559                       0.00717                      -0.12521
                       0.69540                       0.00714                      -0.12519
                       0.69519                       0.00711                      -0.12517
                       0.69498                       0.00709                      -0.12514
                       0.69478                       0.00706                      -0.12511
                       0.69457                       0.00703                      -0.12509
                       0.69437                       0.00701                      -0.12506
                       0.69418                       0.00698                      -0.12503
                       0.69399                       0.00696                      -0.12500
                       0.69381                       0.00693                      -0.12498
                       0.69363                       0.00690                      -0.12496
                       0.69345                       0.00687                      -0.12495
                       0.69329                       0.00684                      -0.12494
                       0.69312                       0.00680                      -0.12494
                       0.69296                       0.00676                      -0.12495
                       0.69280                       0.00671                      -0.12496
                       0.69264                       0.00666                      -0.12499
                       0.69247                       0.00660                      -0.12502
                       0.69231                       0.00653                      -0.12506
                       0.69214                       0.00645                      -0.12511
                       0.69196                       0.00636                      -0.12518
                       0.69178                       0.00627                      -0.12525
                       0.69159                       0.00616                      -0.12534
                       0.69139                       0.00605                      -0.12543
                       0.69118                       0.00592                      -0.12554
                       0.69096                       0.00578                      -0.12565
                       0.69073                       0.00564                      -0.12578
                       0.69049                       0.00549                      -0.12592
                       0.69024                       0.00532                      -0.12606
                       0.68998                       0.00515                      -0.12621
                       0.68971                       0.00497                      -0.12637
                       0.68944                       0.00479                      -0.12654
                       0.68916                       0.00460                      -0.12671
                       0.68889                       0.00441                      -0.12688
                       0.68861                       0.00422                      -0.12706
                       0.68835                       0.00402                      -0.12724
                       0.68810                       0.00383                      -0.12743
                       0.68788                       0.00365                      -0.12761
                       0.68768                       0.00347                      -0.12779
                       0.68751                       0.00330                      -0.12797
                       0.68739                       0.00314                      -0.12815
                       0.68732                       0.00300                      -0.12831
                       0.68730                       0.00288                      -0.12847
        </DataArray>
        <DataArray type="Float32" Name="TranslationalAcceleration" NumberOfComponents="3" format="ascii">
                       0.14537                      -1.59957                       1.15973
                       0.29232                      -2.52676                       1.89854
                       0.43683                      -3.46446                       2.62321
                       0.57655                      -4.42283                       3.31988
                       0.71308                      -5.39492                       3.99783
                       0.84792                      -6.37415                       4.66584
                       0.98274                      -7.35321                       5.33355
                       1.11985                      -8.32184                       6.01434
                       1.26025                      -9.27555                       6.71385
                       1.40029                     -10.23034                       7.41070
                       1.54050                     -11.18399                       8.10775
                       1.68192                     -12.13200                       8.81097
                       1.82584                     -13.06878                       9.52780
                       1.97133                     -13.99865                      10.25261
                       2.11674                     -14.92910                      10.97569
                       2.26207                     -15.86031                      11.69688
                       2.40745                     -16.79172                      12.41690
                       2.55291                     -17.72338                      13.13576
                       2.69858                     -18.65467                      13.85422
                       2.84455                     -19.58524                      14.57269
                       2.99084                     -20.51503                      15.29132
                       3.13746                     -21.44422                      16.00995
                       3.28433                     -22.37323                      16.72823
                       3.43143                     -23.30237                      17.44586
                       3.57878                     -24.23158                      18.16301
                       3.72637                     -25.16093                      18.87959
                       3.87421                     -26.09046                      19.59558
                       4.02232                     -27.02024                      20.31103
                       4.17080                     -27.94991                      21.02659
                       4.31965                     -28.87969                      21.74212
                       4.46888                     -29.80950                      22.45773
                       4.61851                     -30.73923                      23.17352
                       4.76858                     -31.66862                      23.88968
                       4.91910                     -32.59746                      24.60631
                       5.07008                     -33.52557                      25.32344
                       5.22156                     -34.45291                      26.04131
                       5.37357                     -35.37947                      26.76007
                       5.52613                     -36.30498                      27.47989
                       5.67928                     -37.22926                      28.20087
                       5.83300                     -38.15207                      28.92309
                       5.98724                     -39.07351                      29.64620
                       6.14194                     -39.99364                      30.37002
                       6.29707                     -40.91245                      31.09436
                       6.45265                     -41.82990                      31.81947
                       6.60864                     -42.74590                      32.54529
                       6.76502                     -43.66042                      33.27172
                       6.92169                     -44.57358                      33.99848
                       7.07854                     -45.48566                      34.72518
                       7.23551                     -46.39654                      35.45162
                       7.40212                     -47.26302                      36.23082
        </DataArray>
        <DataArray type="Float32" Name="OrientationX" NumberOfComponents="3" format="ascii">
                       0.97694                       0.21317                       0.01178
                       0.97678                       0.21396                       0.01106
                       0.97659                       0.21503                       0.00647
                       0.97696                       0.21340                      -0.00226
                       0.97822                       0.20719                      -0.01254
                       0.98010                       0.19710                      -0.02368
                       0.98232                       0.18392                      -0.03502
                       0.98449                       0.16917                      -0.04638
                       0.98588                       0.15661                      -0.05929
                       0.98644                       0.14694                      -0.07311
                       0.98683                       0.13775                      -0.08481
                       0.98739                       0.12799                      -0.09319
                       0.98801                       0.11789                      -0.09966
                       0.98839                       0.10835                      -0.10649
                       0.98858                       0.09937                      -0.11325
                       0.98871                       0.09046                      -0.11941
                       0.98882                       0.08165                      -0.12481
                       0.98885                       0.07344                      -0.12956
                       0.98870                       0.06668                      -0.13429
                       0.98835                       0.06155                      -0.13919
                       0.98786                       0.05764                      -0.14427
                       0.98737                       0.05394                      -0.14895
                       0.98707                       0.04937                      -0.15251
                       0.98693                       0.04399                      -0.15502
                       0.98695                       0.03779                      -0.15653
                       0.98705                       0.03112                      -0.15739
                       0.98694                       0.02585                      -0.15900
                       0.98662                       0.02233                      -0.16152
                       0.98628                       0.01923                      -0.16398
                       0.98605                       0.01555                      -0.16571
                       0.98599                       0.01075                      -0.16643
                       0.98607                       0.00485                      -0.16627
                       0.98623                      -0.00209                      -0.16537
                       0.98640                      -0.00996                      -0.16403
                       0.98641                      -0.01759                      -0.16333
                       0.98615                      -0.02443                      -0.16406
                       0.98571                      -0.03170                      -0.16545
                       0.98524                      -0.03932                      -0.16660
                       0.98479                      -0.04706                      -0.16725
                       0.98443                      -0.05474                      -0.16703
                       0.98419                      -0.06184                      -0.16594
                       0.98427                      -0.06748                      -0.16328
                       0.98447                      -0.07183                      -0.16017
                       0.98472                      -0.07523                      -0.15709
                       0.98502                      -0.07809                      -0.15373
                       0.98539                      -0.08034                      -0.15014
                       0.98584                      -0.08176                      -0.14639
                       0.98641                      -0.08235                      -0.14218
                       0.98706                      -0.08159                      -0.13807
                       0.98783                      -0.08067                      -0.13299
        </DataArray>
        <DataArray type="Float32" Name="OrientationY" NumberOfComponents="3" format="ascii">
                       0.13396                      -0.56908                      -0.81129
                       0.13381                      -0.56895                      -0.81141
                       0.13064                      -0.56888                      -0.81198
                       0.12259                      -0.56982                      -0.81258
                       0.11077                      -0.57216                      -0.81263
                       0.09612                      -0.57552                      -0.81212
                       0.07958                      -0.57948                      -0.81109
                       0.06212                      -0.58352                      -0.80972
                       0.04460                      -0.58680                      -0.80850
                       0.02794                      -0.58930                      -0.80743
                       0.01327                      -0.59147                      -0.80622
                       0.00096                      -0.59348                      -0.80485
                      -0.01001                      -0.59532                      -0.80342
                      -0.02097                      -0.59695                      -0.80200
                      -0.03157                      -0.59838                      -0.80059
                      -0.04165                      -0.59967                      -0.79917
                      -0.05108                      -0.60081                      -0.79776
                      -0.05965                      -0.60178                      -0.79643
                      -0.06738                      -0.60254                      -0.79524
                      -0.07428                      -0.60313                      -0.79418
                      -0.08062                      -0.60360                      -0.79320
                      -0.08652                      -0.60403                      -0.79225
                      -0.09203                      -0.60449                      -0.79128
                      -0.09717                      -0.60494                      -0.79032
                      -0.10201                      -0.60540                      -0.78936
                      -0.10662                      -0.60583                      -0.78841
                      -0.11100                      -0.60621                      -0.78752
                      -0.11506                      -0.60654                      -0.78668
                      -0.11883                      -0.60687                      -0.78587
                      -0.12236                      -0.60722                      -0.78505
                      -0.12575                      -0.60759                      -0.78423
                      -0.12911                      -0.60797                      -0.78339
                      -0.13251                      -0.60835                      -0.78253
                      -0.13612                      -0.60873                      -0.78161
                      -0.14012                      -0.60909                      -0.78063
                      -0.14478                      -0.60944                      -0.77950
                      -0.15023                      -0.60976                      -0.77822
                      -0.15572                      -0.61005                      -0.77691
                      -0.16090                      -0.61032                      -0.77564
                      -0.16536                      -0.61059                      -0.77449
                      -0.16880                      -0.61088                      -0.77352
                      -0.17012                      -0.61128                      -0.77291
                      -0.17031                      -0.61176                      -0.77249
                      -0.16996                      -0.61226                      -0.77218
                      -0.16906                      -0.61276                      -0.77198
                      -0.16761                      -0.61324                      -0.77191
                      -0.16553                      -0.61372                      -0.77198
                      -0.16258                      -0.61418                      -0.77224
                      -0.15888                      -0.61461                      -0.77266
                      -0.15433                      -0.61501                      -0.77327
        </DataArray>
        <DataArray type="Float32" Name="OrientationZ" NumberOfComponents="3" format="ascii">
                      -0.16624                       0.79417                      -0.58452
                      -0.16731                       0.79405                      -0.58437
                      -0.17091                       0.79381                      -0.58365
                      -0.17469                       0.79358                      -0.58285
                      -0.17554                       0.79354                      -0.58265
                      -0.17370                       0.79368                      -0.58301
                      -0.16947                       0.79396                      -0.58387
                      -0.16405                       0.79428                      -0.58498
                      -0.16141                       0.79444                      -0.58550
                      -0.16173                       0.79444                      -0.58541
                      -0.16122                       0.79447                      -0.58551
                      -0.15832                       0.79461                      -0.58612
                      -0.15404                       0.79479                      -0.58701
                      -0.15046                       0.79493                      -0.58775
                      -0.14732                       0.79503                      -0.58841
                      -0.14390                       0.79512                      -0.58913
                      -0.14012                       0.79521                      -0.58992