<?xml version="1.0"?>
<VTKFile type="PolyData" version="0.1" byte_order="LittleEndian">
  <PolyData>
    <Piece NumberOfPoints="     50" NumberOfVerts="  0" NumberOfLines="     49"
           NumberOfStrips="  0" NumberOfPolys="      0">
      <Points>
        <DataArray type="Float32" NumberOfComponents="3" format="ascii">
                      21.12489                       3.06530                     149.44572
                      20.93105                       5.43082                     149.17205
                      20.73870                       7.79939                     148.93419
                      20.54565                      10.17375                     148.76784
                      20.35526                      12.55221                     148.64898
                      20.17063                      14.93318                     148.55484
                      19.99383                      17.31475                     148.46048
                      19.82442                      19.69394                     148.33163
                      19.66040                      22.06931                     148.15393
                      19.49708                      24.44512                     147.98283
                      19.33291                      26.82071                     147.81115
                      19.16961                      29.19488                     147.62331
                      19.01120                      31.56619                     147.39947
                      18.85954                      33.93594                     147.15376
                      18.71604                      36.30636                     146.91100
                      18.58147                      38.67752                     146.67151
                      18.45620                      41.04924                     146.43334
                      18.34130                      43.42154                     146.19633
                      18.23487                      45.79413                     145.95874
                      18.13277                      48.16684                     145.72021
                      18.03228                      50.53966                     145.48084
                      17.93102                      52.91273                     145.24150
                      17.83198                      55.28636                     145.00276
                      17.73908                      57.66076                     144.76474
                      17.65464                      60.03597                     144.52671
                      17.58218                      62.41202                     144.28824
                      17.52181                      64.78894                     144.04941
                      17.46624                      67.16700                     143.81149
                      17.41363                      69.54629                     143.57330
                      17.36438                      71.92712                     143.33527
                      17.32262                      74.30949                     143.09638
                      17.29142                      76.69339                     142.85586
                      17.27444                      79.07860                     142.61242
                      17.27409                      81.46493                     142.36525
                      17.29281                      83.85211                     142.11367
                      17.32551                      86.24047                     141.85811
                      17.37040                      88.63017                     141.59863
                      17.42903                      91.02100                     141.33437
                      17.50194                      93.41281                     141.06480
                      17.59054                      95.80525                     140.78924
                      17.69596                      98.19807                     140.50820
                      17.81778                     100.59114                     140.22207
                      17.95588                     102.98417                     139.93112
                      18.10701                     105.37724                     139.63540
                      18.27077                     107.77000                     139.33487
                      18.44629                     110.16208                     139.02972
                      18.63275                     112.55308                     138.72059
                      18.82830                     114.94272                     138.40862
                      19.03267                     117.33016                     138.09390
                      19.21616                     119.70032                     137.63894
        </DataArray>
      </Points>
      <PointData>
        <DataArray type="Float32" Name="TranslationalVelocity" NumberOfComponents="3" format="ascii">
                       0.65190                       0.19552                       2.80067
                       0.95099                       0.41383                       4.47580
                       1.25063                       0.60659                       6.15307
                       1.55136                       0.74884                       7.83441
                       1.85290                       0.85714                       9.51861
                       2.15497                       0.94722                      11.20451
                       2.45726                       1.03646                      12.89075
                       2.75925                       1.14918                      14.57523
                       3.06072                       1.29580                      16.25691
                       3.36247                       1.43766                      17.93884
                       3.66441                       1.58005                      19.62053
                       3.96633                       1.73377                      21.30115
                       4.26797                       1.91234                      22.97964
                       4.56957                       2.10554                      24.65691
                       4.87155                       2.29561                      26.33455
                       5.17392                       2.48223                      28.01257
                       5.47668                       2.66673                      29.69087
                       5.77983                       2.84910                      31.36944
                       6.08336                       3.03078                      33.04808
                       6.38725                       3.21258                      34.72670
                       6.69152                       3.39478                      36.40529
                       6.99622                       3.57706                      38.08396
                       7.30141                       3.75864                      39.76290
                       7.60714                       3.93894                      41.44225
                       7.91344                       4.11817                      43.12202
                       8.22033                       4.29618                      44.80221
                       8.52783                       4.47289                      46.48284
                       8.83604                       4.64835                      48.16410
                       9.14497                       4.82364                      49.84609
                       9.45471                       4.99841                      51.52898
                       9.76527                       5.17284                      53.21277
                      10.07669                       5.34708                      54.89741
                      10.38896                       5.52155                      56.58274
                      10.70208                       5.69650                      58.26859
                      11.01604                       5.87209                      59.95476
                      11.33092                       6.04867                      61.64148
                      11.64675                       6.22643                      63.32888
                      11.96354                       6.40576                      65.01677
                      12.28127                       6.58696                      66.70505
                      12.59991                       6.77032                      68.39346
                      12.91944                       6.95530                      70.08182
                      13.23984                       7.14166                      71.77001
                      13.56108                       7.32922                      73.45786
                      13.88314                       7.51836                      75.14545
                      14.20596                       7.70915                      76.83252
                      14.52946                       7.90155                      78.51885
                      14.85354                       8.09520                      80.20419
                      15.17811                       8.28953                      81.88836
                      15.50299                       8.48448                      83.57082
                      15.82554                       8.78107                      85.24107
        </DataArray>
        <DataArray type="Float32" Name="RotationalVelocity" NumberOfComponents="3" format="ascii">
                       0.70778                       0.00446                      -0.12696
                       0.70778                       0.00446                      -0.12695
                       0.70777                       0.00446                      -0.12696
                       0.70775                       0.00445                      -0.12698
                       0.70774                       0.00445                      -0.12702
                       0.70772                       0.00444                      -0.12707
                       0.70770                       0.00444                      -0.12714
                       0.70767                       0.00443                      -0.12721
                       0.70765                       0.00442                      -0.12729
                       0.70762                       0.00441                      -0.12737
                       0.70759                       0.00440                      -0.12747
                       0.70756                       0.00439                      -0.12757
                       0.70752                       0.00438                      -0.12767
                       0.70749                       0.00436                      -0.12778
                       0.70745                       0.00435                      -0.12790
                       0.70742                       0.00434                      -0.12802
                       0.70738                       0.00432                      -0.12815
                       0.70734                       0.00431                      -0.12829
                       0.70730                       0.00429                      -0.12843
                       0.70726                       0.00428                      -0.12858
                       0.70722                       0.00426                      -0.12874
                       0.70718                       0.00424                      -0.12891
                       0.70713                       0.00422                      -0.12908
                       0.70709                       0.00420                      -0.12927
                       0.70704                       0.00418                      -0.12946
                       0.70699                       0.00416                      -0.12967
                       0.70693                       0.00414                      -0.12989
                       0.70687                       0.00411                      -0.13012
                       0.70681                       0.00409                      -0.13035
                       0.70675                       0.00406                      -0.13061
                       0.70668                       0.00403                      -0.13087
                       0.70661                       0.00400                      -0.13114
                       0.70653                       0.00397                      -0.13142
                       0.70645                       0.00394                      -0.13172
                       0.70637                       0.00391                      -0.13202
                       0.70628                       0.00388                      -0.13233
                       0.70619                       0.00384                      -0.13264
                       0.70609                       0.00381                      -0.13297
                       0.70599                       0.00377                      -0.13329
                       0.70589                       0.00373                      -0.13362
                       0.70579                       0.00370                      -0.13395
                       0.70569                       0.00366                      -0.13428
                       0.70559                       0.00363                      -0.13460
                       0.70549                       0.00359                      -0.13491
                       0.70540                       0.00356                      -0.13521
                       0.70532                       0.00353                      -0.13550
                       0.70525                       0.00350                      -0.13577
                       0.70519                       0.00347                      -0.13601
                       0.70514                       0.00345                      -0.13623
                       0.70510                       0.00343                      -0.13642
        </DataArray>
        <DataArray type="Float32" Name="TranslationalAcceleration" NumberOfComponents="3" format="ascii">
                       0.04502                      -2.02277                       0.20726
                       0.08015                      -3.24605                       0.36318
                       0.11208                      -4.47092                       0.50116
                       0.13769                      -5.69886                       0.60363
                       0.15907                      -6.92896                       0.68245
                       0.17824                      -8.16034                       0.74883
                       0.19740                      -9.39198                       0.81513
                       0.21965                     -10.62223                       0.89859
                       0.24634                     -11.85027                       1.00663
                       0.27260                     -13.07848                       1.11191
                       0.29913                     -14.30648                       1.21817
                       0.32733                     -15.53359                       1.33305
                       0.35891                     -16.75895                       1.46612
                       0.39260                     -17.98327                       1.61011
                       0.42617                     -19.20780                       1.75245
                       0.45959                     -20.43258                       1.89290
                       0.49303                     -21.65751                       2.03237
                       0.52650                     -22.88260                       2.17082
                       0.56016                     -24.10772                       2.30927
                       0.59413                     -25.33277                       2.44827
                       0.62842                     -26.55777                       2.58799
                       0.66301                     -27.78280                       2.72821
                       0.69777                     -29.00800                       2.86835
                       0.73261                     -30.23350                       3.00799
                       0.76756                     -31.45930                       3.14727
                       0.80258                     -32.68543                       3.28610
                       0.83763                     -33.91189                       3.42440
                       0.87271                     -35.13883                       3.56224
                       0.90795                     -36.36630                       3.70038
                       0.94328                     -37.59446                       3.83860
                       0.97869                     -38.82328                       3.97704
                       1.01420                     -40.05276                       4.11581
                       1.04984                     -41.28277                       4.25523
                       1.08560                     -42.51318                       4.39549
                       1.12150                     -43.74386                       4.53672
                       1.15756                     -44.97496                       4.67919
                       1.19378                     -46.20657                       4.82306
                       1.23020                     -47.43855                       4.96861
                       1.26684                     -48.67080                       5.11606
                       1.30372                     -49.90314                       5.26561
                       1.34074                     -51.13544                       5.41687
                       1.37785                     -52.36762                       5.56966
                       1.41502                     -53.59954                       5.72383
                       1.45226                     -54.83125                       5.87960
                       1.48956                     -56.06259                       6.03696
                       1.52691                     -57.29338                       6.19582
                       1.56422                     -58.52345                       6.35583
                       1.60142                     -59.75268                       6.51647
                       1.63845                     -60.98070                       6.67754
                       1.68889                     -62.19813                       6.91003
        </DataArray>
        <DataArray type="Float32" Name="OrientationX" NumberOfComponents="3" format="ascii">
                       0.99195                       0.08385                       0.09484
                       0.99188                       0.08492                       0.09463
                       0.99191                       0.08822                       0.09127
                       0.99236                       0.09130                       0.08295
                       0.99331                       0.09120                       0.07091
                       0.99452                       0.08817                       0.05612
                       0.99580                       0.08258                       0.03954
                       0.99689                       0.07566                       0.02214
                       0.99743                       0.07146                       0.00458
                       0.99745                       0.07027                      -0.01226
                       0.99729                       0.06840                      -0.02703
                       0.99716                       0.06431                      -0.03925
                       0.99701                       0.05893                      -0.05002
                       0.99668                       0.05423                      -0.06079
                       0.99621                       0.04999                      -0.07122
                       0.99567                       0.04549                      -0.08109
                       0.99509                       0.04068                      -0.09025
                       0.99448                       0.03605                      -0.09855
                       0.99382                       0.03265                      -0.10608
                       0.99313                       0.03074                      -0.11290
                       0.99241                       0.02996                      -0.11925
                       0.99171                       0.02916                      -0.12515
                       0.99108                       0.02700                      -0.13054
                       0.99050                       0.02359                      -0.13545
                       0.98998                       0.01895                      -0.13993
                       0.98947                       0.01355                      -0.14410
                       0.98891                       0.00974                      -0.14818
                       0.98833                       0.00789                      -0.15213
                       0.98776                       0.00637                      -0.15582
                       0.98724                       0.00396                      -0.15918
                       0.98675                       0.00005                      -0.16225
                       0.98626                      -0.00528                      -0.16514
                       0.98573                      -0.01189                      -0.16794
                       0.98511                      -0.01952                      -0.17083
                       0.98436                      -0.02662                      -0.17414
                       0.98345                      -0.03229                      -0.17826
                       0.98235                      -0.03797                      -0.18316
                       0.98117                      -0.04408                      -0.18804
                       0.97999                      -0.05055                      -0.19254
                       0.97887                      -0.05742                      -0.19627
                       0.97790                      -0.06426                      -0.19896
                       0.97733                      -0.07069                      -0.19956
                       0.97701                      -0.07625                      -0.19911
                       0.97681                      -0.08099                      -0.19820
                       0.97672                      -0.08541                      -0.19678
                       0.97675                      -0.08941                      -0.19485
                       0.97693                      -0.09279                      -0.19236
                       0.97729                      -0.09569                      -0.18905
                       0.97788                      -0.09737                      -0.18514
                       0.97857                      -0.09941                      -0.18032
        </DataArray>
        <DataArray type="Float32" Name="OrientationY" NumberOfComponents="3" format="ascii">
                       0.10132                      -0.07677                      -0.99189
                       0.10119                      -0.07660                      -0.99191
                       0.09806                      -0.07598                      -0.99228
                       0.08998                      -0.07577                      -0.99306
                       0.07800                      -0.07669                      -0.99400
                       0.06310                      -0.07852                      -0.99491
                       0.04625                      -0.08097                      -0.99564
                       0.02847                      -0.08357                      -0.99609
                       0.01070                      -0.08545                      -0.99628
                      -0.00614                      -0.08667                      -0.99622
                      -0.02096                      -0.08788                      -0.99591
                      -0.03343                      -0.08925                      -0.99545
                      -0.04455                      -0.09062                      -0.99489
                      -0.05565                      -0.09182                      -0.99422
                      -0.06636                      -0.09287                      -0.99346
                      -0.07655                      -0.09384                      -0.99264
                      -0.08608                      -0.09475                      -0.99177
                      -0.09473                      -0.09555                      -0.99091
                      -0.10252                      -0.09617                      -0.99007
                      -0.10947                      -0.09664                      -0.98928
                      -0.11585                      -0.09703                      -0.98852
                      -0.12179                      -0.09742                      -0.98776
                      -0.12734                      -0.09786                      -0.98702
                      -0.13253                      -0.09833                      -0.98629
                      -0.13742                      -0.09883                      -0.98557
                      -0.14207                      -0.09933                      -0.98486
                      -0.14649                      -0.09978                      -0.98417
                      -0.15059                      -0.10019                      -0.98351
                      -0.15440                      -0.10061                      -0.98287
                      -0.15797                      -0.10108                      -0.98226
                      -0.16141                      -0.10158                      -0.98165
                      -0.16481                      -0.10211                      -0.98103
                      -0.16826                      -0.10265                      -0.98038
                      -0.17193                      -0.10319                      -0.97969
                      -0.17598                      -0.10372                      -0.97891
                      -0.18070                      -0.10425                      -0.97800
                      -0.18620                      -0.10476                      -0.97691
                      -0.19174                      -0.10526                      -0.97579
                      -0.19696                      -0.10575                      -0.97469
                      -0.20147                      -0.10624                      -0.97372
                      -0.20497                      -0.10676                      -0.97293
                      -0.20635                      -0.10739                      -0.97257
                      -0.20661                      -0.10809                      -0.97243
                      -0.20633                      -0.10881                      -0.97241
                      -0.20551                      -0.10951                      -0.97251
                      -0.20413                      -0.11018                      -0.97272
                      -0.20212                      -0.11081                      -0.97307
                      -0.19924                      -0.11140                      -0.97360
                      -0.19560                      -0.11193                      -0.97428
                      -0.19110                      -0.11240                      -0.97511
        </DataArray>
        <DataArray type="Float32" Name="OrientationZ" NumberOfComponents="3" format="ascii">
                      -0.07589                       0.99352                      -0.08464
                      -0.07698                       0.99344                      -0.08457
                      -0.08060                       0.99320                      -0.08402
                      -0.08438                       0.99294                      -0.08340
                      -0.08521                       0.99288                      -0.08329
                      -0.08332                       0.99301                      -0.08366
                      -0.07902                       0.99329                      -0.08445
                      -0.07351                       0.99363                      -0.08547
                      -0.07081                       0.99378                      -0.08600
                      -0.07107                       0.99376                      -0.08602
                      -0.07050                       0.99378                      -0.08621
                      -0.06753                       0.99393                      -0.08684
                      -0.06316                       0.99414                      -0.08773
                      -0.05950                       0.99430                      -0.08850
                      -0.05628                       0.99442                      -0.08920
                      -0.05277                       0.99455                      -0.08995
                      -0.04890                       0.99467                      -0.09078