<?xml version="1.0"?>
<VTKFile type="PolyData" version="0.1" byte_order="LittleEndian">
  <PolyData>
    <Piece NumberOfPoints="     50" NumberOfVerts="  0" NumberOfLines="     49"
           NumberOfStrips="  0" NumberOfPolys="      0">
      <Points>
        <DataArray type="Float32" NumberOfComponents="3" format="ascii">
                      20.31557                       2.96261                     150.28575
                      20.17956                       5.34780                     150.30914
                      20.04456                       7.73149                     150.36844
                      19.90789                      10.11197                     150.49936
                      19.77325                      12.49051                     150.67790
                      19.64408                      14.86831                     150.88130
                      19.52277                      17.24653                     151.08461
                      19.40937                      19.62656                     151.25343
                      19.30208                      22.00878                     151.37331
                      19.19543                      24.39061                     151.49973
                      19.08798                      26.77231                     151.62547
                      18.98166                      29.15463                     151.73494
                      18.88078                      31.53849                     151.80833
                      18.78700                      33.92336                     151.85983
                      18.70139                      36.30835                     151.91438
                      18.62473                      38.69344                     151.97231
                      18.55741                      41.07869                     152.03166
                      18.50051                      43.46411                     152.09230
                      18.45214                      45.84970                     152.15245
                      18.40818                      48.23541                     152.21166
                      18.36590                      50.62130                     152.27001
                      18.32290                      53.00747                     152.32835
                      18.28220                      55.39405                     152.38733
                      18.24768                      57.78116                     152.44713
                      18.22172                      60.16887                     152.50706
                      18.20781                      62.55718                     152.56675
                      18.20607                      64.94610                     152.62628
                      18.20921                      67.33591                     152.68685
                      18.21540                      69.72692                     152.74728
                      18.22504                      72.11934                     152.80803
                      18.24228                      74.51323                     152.86815
                      18.27020                      76.90857                     152.92689
                      18.31247                      79.30523                     152.98300
                      18.37152                      81.70305                     153.03568
                      18.44977                      84.10179                     153.08424
                      18.54216                      86.50184                     153.12910
                      18.64689                      88.90341                     153.17030
                      18.76550                      91.30635                     153.20696
                      18.89855                      93.71055                     153.23858
                      19.04746                      96.11574                     153.26442
                      19.21332                      98.52158                     153.28499
                      19.39572                     100.92785                     153.30066
                      19.59452                     103.33429                     153.31165
                      19.80647                     105.74102                     153.31800
                      20.03115                     108.14771                     153.31961
                      20.26771                     110.55401                     153.31662
                      20.51526                     112.95944                     153.30964
                      20.77196                     115.36363                     153.29972
                      21.03750                     117.76575                     153.28690
                      21.28396                     120.16864                     153.13251
        </DataArray>
      </Points>
      <PointData>
        <DataArray type="Float32" Name="TranslationalVelocity" NumberOfComponents="3" format="ascii">
                       0.35852                      -0.09723                       2.90719
                       0.67945                      -0.09621                       4.66968
                       1.00031                      -0.12185                       6.43107
                       1.32104                      -0.20019                       8.19011
                       1.64177                      -0.31397                       9.94775
                       1.96260                      -0.44685                      11.70484
                       2.28362                      -0.58072                      13.46227
                       2.60492                      -0.69019                      15.22105
                       2.92651                      -0.76431                      16.98146
                       3.24828                      -0.84336                      18.74162
                       3.57025                      -0.92178                      20.50173
                       3.89248                      -0.98834                      22.26232
                       4.21504                      -1.02895                      24.02407
                       4.53792                      -1.05435                      25.78657
                       4.86112                      -1.08310                      27.54914
                       5.18463                      -1.11555                      29.31178
                       5.50849                      -1.15031                      31.07452
                       5.83270                      -1.18742                      32.83735
                       6.15728                      -1.22533                      34.60027
                       6.48223                      -1.26313                      36.36327
                       6.80757                      -1.30052                      38.12639
                       7.13334                      -1.33779                      39.88970
                       7.45957                      -1.37583                      41.65330
                       7.78632                      -1.41531                      43.41724
                       8.11359                      -1.45604                      45.18157
                       8.44140                      -1.49822                      46.94627
                       8.76979                      -1.54194                      48.71134
                       9.09882                      -1.58709                      50.47701
                       9.42854                      -1.63252                      52.24351
                       9.75903                      -1.67864                      54.01099
                      10.09029                      -1.72531                      55.77948
                      10.42236                      -1.77241                      57.54894
                      10.75524                      -1.81952                      59.31927
                      11.08892                      -1.86640                      61.09032
                      11.42339                      -1.91288                      62.86190
                      11.75873                      -1.95857                      64.63433
                      12.09498                      -2.00325                      66.40776
                      12.43214                      -2.04651                      68.18206
                      12.77021                      -2.08804                      69.95715
                      13.10914                      -2.12752                      71.73280
                      13.44891                      -2.16549                      73.50877
                      13.78948                      -2.20218                      75.28490
                      14.13081                      -2.23774                      77.06098
                      14.47290                      -2.27176                      78.83713
                      14.81567                      -2.30412                      80.61309
                      15.15906                      -2.33482                      82.38862
                      15.50294                      -2.36419                      84.16337
                      15.84722                      -2.39279                      85.93708
                      16.19171                      -2.42060                      87.70913
                      16.53615                      -2.34127                      89.48175
        </DataArray>
        <DataArray type="Float32" Name="RotationalVelocity" NumberOfComponents="3" format="ascii">
                       0.73872                       0.00375                      -0.13452
                       0.73872                       0.00375                      -0.13451
                       0.73873                       0.00375                      -0.13452
                       0.73874                       0.00375                      -0.13454
                       0.73875                       0.00375                      -0.13458
                       0.73877                       0.00376                      -0.13463
                       0.73878                       0.00376                      -0.13470
                       0.73880                       0.00377                      -0.13477
                       0.73882                       0.00377                      -0.13485
                       0.73884                       0.00377                      -0.13494
                       0.73885                       0.00378                      -0.13503
                       0.73887                       0.00379                      -0.13514
                       0.73888                       0.00379                      -0.13525
                       0.73889                       0.00380                      -0.13536
                       0.73890                       0.00380                      -0.13548
                       0.73890                       0.00381                      -0.13561
                       0.73891                       0.00381                      -0.13575
                       0.73891                       0.00382                      -0.13588
                       0.73891                       0.00383                      -0.13603
                       0.73891                       0.00383                      -0.13618
                       0.73891                       0.00384                      -0.13634
                       0.73890                       0.00385                      -0.13651
                       0.73889                       0.00385                      -0.13668
                       0.73888                       0.00386                      -0.13686
                       0.73887                       0.00387                      -0.13705
                       0.73886                       0.00387                      -0.13725
                       0.73884                       0.00388                      -0.13746
                       0.73883                       0.00389                      -0.13767
                       0.73881                       0.00390                      -0.13790
                       0.73879                       0.00391                      -0.13813
                       0.73877                       0.00392                      -0.13837
                       0.73874                       0.00393                      -0.13862
                       0.73872                       0.00393                      -0.13888
                       0.73869                       0.00394                      -0.13915
                       0.73866                       0.00395                      -0.13942
                       0.73863                       0.00396                      -0.13970
                       0.73860                       0.00397                      -0.13999
                       0.73856                       0.00398                      -0.14028
                       0.73853                       0.00399                      -0.14057
                       0.73849                       0.00400                      -0.14086
                       0.73845                       0.00401                      -0.14116
                       0.73841                       0.00402                      -0.14145
                       0.73837                       0.00403                      -0.14173
                       0.73833                       0.00404                      -0.14200
                       0.73830                       0.00405                      -0.14227
                       0.73826                       0.00406                      -0.14252
                       0.73822                       0.00407                      -0.14275
                       0.73819                       0.00407                      -0.14295
                       0.73816                       0.00408                      -0.14314
                       0.73813                       0.00408                      -0.14329
        </DataArray>
        <DataArray type="Float32" Name="TranslationalAcceleration" NumberOfComponents="3" format="ascii">
                      -0.00113                      -2.21406                      -0.08709
                       0.00529                      -3.55924                      -0.08616
                       0.00816                      -4.90363                      -0.10479
                       0.00401                      -6.24633                      -0.16205
                      -0.00485                      -7.58810                      -0.24512
                      -0.01620                      -8.92960                      -0.34182
                      -0.02759                     -10.27150                      -0.43871
                      -0.03560                     -11.61449                      -0.51698
                      -0.03873                     -12.95876                      -0.56851
                      -0.04236                     -14.30298                      -0.62303
                      -0.04571                     -15.64729                      -0.67643
                      -0.04726                     -16.99203                      -0.72039
                      -0.04510                     -18.33765                      -0.74453
                      -0.04064                     -19.68387                      -0.75678
                      -0.03638                     -21.03024                      -0.77090
                      -0.03236                     -22.37677                      -0.78715
                      -0.02838                     -23.72349                      -0.80453
                      -0.02445                     -25.07039                      -0.82310
                      -0.02036                     -26.41746                      -0.84173
                      -0.01601                     -27.76469                      -0.85977
                      -0.01136                     -29.11210                      -0.87701
                      -0.00646                     -30.45976                      -0.89369
                      -0.00145                     -31.80775                      -0.91046
                       0.00357                     -33.15611                      -0.92783
                       0.00859                     -34.50490                      -0.94568
                       0.01358                     -35.85410                      -0.96415
                       0.01848                     -37.20371                      -0.98332
                       0.02330                     -38.55393                      -1.00306
                       0.02817                     -39.90492                      -1.02254
                       0.03299                     -41.25682                      -1.04201
                       0.03778                     -42.60963                      -1.06138
                       0.04250                     -43.96335                      -1.08053
                       0.04718                     -45.31790                      -1.09914
                       0.05184                     -46.67318                      -1.11699
                       0.05646                     -48.02905                      -1.13395
                       0.06106                     -49.38573                      -1.14970
                       0.06566                     -50.74334                      -1.16405
                       0.07029                     -52.10179                      -1.17669
                       0.07495                     -53.46100                      -1.18736
                       0.07968                     -54.82079                      -1.19584
                       0.08437                     -56.18097                      -1.20252
                       0.08897                     -57.54140                      -1.20758
                       0.09343                     -58.90193                      -1.21117
                       0.09780                     -60.26263                      -1.21303
                       0.10206                     -61.62328                      -1.21311
                       0.10622                     -62.98367                      -1.21151
                       0.11019                     -64.34353                      -1.20858
                       0.11391                     -65.70263                      -1.20485
                       0.11736                     -67.06047                      -1.20047
                       0.13564                     -68.41699                      -1.11702
        </DataArray>
        <DataArray type="Float32" Name="OrientationX" NumberOfComponents="3" format="ascii">
                       0.99200                       0.04709                       0.11711
                       0.99196                       0.04816                       0.11704
                       0.99211                       0.05186                       0.11412
                       0.99276                       0.05594                       0.10626
                       0.99389                       0.05731                       0.09432
                       0.99527                       0.05613                       0.07928
                       0.99668                       0.05261                       0.06214
                       0.99788                       0.04789                       0.04403
                       0.99861                       0.04590                       0.02609
                       0.99886                       0.04681                       0.00924
                       0.99889                       0.04679                      -0.00565
                       0.99885                       0.04424                      -0.01830
                       0.99875                       0.04023                      -0.02965
                       0.99848                       0.03690                      -0.04094
                       0.99808                       0.03399                      -0.05182
                       0.99759                       0.03076                      -0.06218
                       0.99704                       0.02712                      -0.07188
                       0.99646                       0.02355                      -0.08070
                       0.99584                       0.02111                      -0.08861
                       0.99522                       0.02006                      -0.09563
                       0.99458                       0.02007                      -0.10203
                       0.99395                       0.02000                      -0.10800
                       0.99335                       0.01853                      -0.11362
                       0.99278                       0.01574                      -0.11893
                       0.99222                       0.01169                      -0.12396
                       0.99165                       0.00684                      -0.12878
                       0.99107                       0.00355                      -0.13332
                       0.99050                       0.00220                      -0.13748
                       0.98996                       0.00114                      -0.14134
                       0.98943                      -0.00085                      -0.14498
                       0.98890                      -0.00436                      -0.14853
                       0.98833                      -0.00930                      -0.15207
                       0.98769                      -0.01552                      -0.15568
                       0.98693                      -0.02275                      -0.15951
                       0.98607                      -0.02938                      -0.16369
                       0.98510                      -0.03450                      -0.16850
                       0.98394                      -0.03952                      -0.17409
                       0.98269                      -0.04497                      -0.17971
                       0.98142                      -0.05082                      -0.18500
                       0.98020                      -0.05717                      -0.18957
                       0.97911                      -0.06361                      -0.19311
                       0.97841                      -0.06992                      -0.19451
                       0.97794                      -0.07551                      -0.19477
                       0.97761                      -0.08034                      -0.19446
                       0.97740                      -0.08491                      -0.19360
                       0.97730                      -0.08914                      -0.19219
                       0.97736                      -0.09282                      -0.19014
                       0.97761                      -0.09612                      -0.18721
                       0.97809                      -0.09830                      -0.18354
                       0.97866                      -0.10094                      -0.17901
        </DataArray>
        <DataArray type="Float32" Name="OrientationY" NumberOfComponents="3" format="ascii">
                       0.11498                       0.04573                      -0.99231
                       0.11485                       0.04589                      -0.99232
                       0.11174                       0.04662                      -0.99264
                       0.10368                       0.04711                      -0.99349
                       0.09171                       0.04658                      -0.99470
                       0.07679                       0.04522                      -0.99602
                       0.05990                       0.04327                      -0.99727
                       0.04208                       0.04116                      -0.99827
                       0.02427                       0.03972                      -0.99892
                       0.00742                       0.03888                      -0.99922
                      -0.00743                       0.03798                      -0.99925
                      -0.01993                       0.03685                      -0.99912
                      -0.03109                       0.03565                      -0.99888
                      -0.04222                       0.03462                      -0.99851
                      -0.05296                       0.03373                      -0.99803
                      -0.06319                       0.03288                      -0.99746
                      -0.07274                       0.03208                      -0.99683
                      -0.08142                       0.03137                      -0.99619
                      -0.08923                       0.03081                      -0.99553
                      -0.09621                       0.03039                      -0.99490
                      -0.10260                       0.03004                      -0.99427
                      -0.10856                       0.02969                      -0.99365
                      -0.11413                       0.02927                      -0.99303
                      -0.11934                       0.02882                      -0.99243
                      -0.12425                       0.02833                      -0.99185
                      -0.12892                       0.02784                      -0.99126
                      -0.13336                       0.02740                      -0.99069
                      -0.13749                       0.02699                      -0.99014
                      -0.14132                       0.02656                      -0.98961
                      -0.14491                       0.02609                      -0.98910
                      -0.14837                       0.02557                      -0.98860
                      -0.15180                       0.02503                      -0.98809
                      -0.15527                       0.02447                      -0.98757
                      -0.15897                       0.02391                      -0.98699
                      -0.16304                       0.02336                      -0.98634
                      -0.16778                       0.02281                      -0.98556
                      -0.17331                       0.02228                      -0.98461
                      -0.17889                       0.02175                      -0.98363
                      -0.18414                       0.02122                      -0.98267
                      -0.18868                       0.02069                      -0.98182
                      -0.19220                       0.02013                      -0.98115
                      -0.19361                       0.01947                      -0.98089
                      -0.19390                       0.01874                      -0.98084
                      -0.19364                       0.01799                      -0.98091
                      -0.19283                       0.01726                      -0.98108
                      -0.19148                       0.01657                      -0.98136
                      -0.18948                       0.01592                      -0.98176
                      -0.18661                       0.01532                      -0.98231
                      -0.18298                       0.01478                      -0.98301
                      -0.17848                       0.01431                      -0.98384
        </DataArray>
        <DataArray type="Float32" Name="OrientationZ" NumberOfComponents="3" format="ascii">
                      -0.05208                       0.99784                       0.03995
                      -0.05317                       0.99778                       0.03999
                      -0.05679                       0.99757                       0.04046
                      -0.06059                       0.99732                       0.04097
                      -0.06140                       0.99727                       0.04104
                      -0.05949                       0.99740                       0.04070
                      -0.05516                       0.99768                       0.03998
                      -0.04962                       0.99800                       0.03905
                      -0.04689                       0.99816                       0.03855
                      -0.04713                       0.99815                       0.03849
                      -0.04654                       0.99818                       0.03829
                      -0.04353                       0.99834                       0.03769
                      -0.03913                       0.99855                       0.03686
                      -0.03543                       0.99872                       0.03613
                      -0.03218                       0.99885                       0.03546
                      -0.02863                       0.99899                       0.03474
                      -0.02473                       0.99912                       0.03395