<?xml version="1.0"?>
<VTKFile type="PolyData" version="0.1" byte_order="LittleEndian">
  <PolyData>
    <Piece NumberOfPoints="      3" NumberOfVerts="  0" NumberOfLines="      2"
           NumberOfStrips="  0" NumberOfPolys="      0">
      <Points>
        <DataArray type="Float32" NumberOfComponents="3" format="ascii">
                      34.42381                      -0.13527                     147.71363
                      34.42418                      -0.13529                     147.71861
                      34.42344                      -0.13526                     147.70864
        </DataArray>
      </Points>
      <PointData>
        <DataArray type="Float32" Name="TranslationalVelocity" NumberOfComponents="3" format="ascii">
                      -0.04917                       0.03192                      -0.05169
                      -0.04917                       0.03192                      -0.05169
                      -0.04918                       0.03192                      -0.05169
        </DataArray>
        <DataArray type="Float32" Name="RotationalVelocity" NumberOfComponents="3" format="ascii">
                      -0.00014                       0.00020                       0.00029
                      -0.00014                       0.00020                       0.00029
                      -0.00014                       0.00020                       0.00029
        </DataArray>
        <DataArray type="Float32" Name="TranslationalAcceleration" NumberOfComponents="3" format="ascii">
                      -0.01944                      -0.01962                       0.00710
                      -0.01944                      -0.01962                       0.00710
                      -0.01943                      -0.01962                       0.00710
        </DataArray>
        <DataArray type="Float32" Name="RotationalAcceleration" NumberOfComponents="3" format="ascii">
                       0.00017                      -0.00057                       0.00012
                       0.00017                      -0.00057                       0.00012
                       0.00017                      -0.00057                       0.00012
        </DataArray>
        <DataArray type="Float32" Name="OrientationX" NumberOfComponents="3" format="ascii">
                       0.99726                       0.00457                      -0.07380
                       0.99726                       0.00457                      -0.07380
                       0.99726                       0.00457                      -0.07380
        </DataArray>
        <DataArray type="Float32" Name="OrientationY" NumberOfComponents="3" format="ascii">
                      -0.00429                       0.99998                       0.00390
                      -0.00429                       0.99998                       0.00390
                      -0.00429                       0.99998                       0.00390
        </DataArray>
        <DataArray type="Float32" Name="OrientationZ" NumberOfComponents="3" format="ascii">
                       0.07382                      -0.00357                       0.99727
                       0.07382                      -0.00357                       0.99727
                       0.07382                      -0.00357                       0.99727
        </DataArray>
      </PointData>
      <Lines>
        <DataArray type="Int32" Name="connectivity" format="ascii">
      0      1
      2      0
        </DataArray>
        <DataArray type="Int32" Name="offsets" format="ascii">
      2
      4
        </DataArray>
      </Lines>
    </Piece>
  </PolyData>
</VTKFile>
