<?xml version="1.0"?>
<VTKFile type="PolyData" version="0.1" byte_order="LittleEndian">
  <PolyData>
    <Piece NumberOfPoints="      3" NumberOfVerts="  0" NumberOfLines="      2"
           NumberOfStrips="  0" NumberOfPolys="      0">
      <Points>
        <DataArray type="Float32" NumberOfComponents="3" format="ascii">
                      28.08260                      -0.81531                     147.71815
                      28.08297                      -0.81535                     147.72313
                      28.08222                      -0.81526                     147.71316
        </DataArray>
      </Points>
      <PointData>
        <DataArray type="Float32" Name="TranslationalVelocity" NumberOfComponents="3" format="ascii">
                       0.19612                      -0.01277                      -0.05565
                       0.19612                      -0.01277                      -0.05565
                       0.19612                      -0.01277                      -0.05565
        </DataArray>
        <DataArray type="Float32" Name="RotationalVelocity" NumberOfComponents="3" format="ascii">
                       0.00009                       0.00014                       0.00034
                       0.00009                       0.00014                       0.00034
                       0.00009                       0.00014                       0.00034
        </DataArray>
        <DataArray type="Float32" Name="TranslationalAcceleration" NumberOfComponents="3" format="ascii">
                       0.00207                       0.02417                       0.00858
                       0.00207                       0.02417                       0.00858
                       0.00207                       0.02417                       0.00858
        </DataArray>
        <DataArray type="Float32" Name="RotationalAcceleration" NumberOfComponents="3" format="ascii">
                      -0.00007                      -0.00038                       0.00043
                      -0.00007                      -0.00038                       0.00043
                      -0.00007                      -0.00038                       0.00043
        </DataArray>
        <DataArray type="Float32" Name="OrientationX" NumberOfComponents="3" format="ascii">
                       0.99717                       0.00634                      -0.07497
                       0.99717                       0.00634                      -0.07497
                       0.99717                       0.00634                      -0.07497
        </DataArray>
        <DataArray type="Float32" Name="OrientationY" NumberOfComponents="3" format="ascii">
                      -0.00564                       0.99994                       0.00956
                      -0.00564                       0.99994                       0.00956
                      -0.00564                       0.99994                       0.00956
        </DataArray>
        <DataArray type="Float32" Name="OrientationZ" NumberOfComponents="3" format="ascii">
                       0.07503                      -0.00911                       0.99714
                       0.07503                      -0.00911                       0.99714
                       0.07503                      -0.00911                       0.99714
        </DataArray>
      </PointData>
      <Lines>
        <DataArray type="Int32" Name="connectivity" format="ascii">
      0      1
      2      0
        </DataArray>
        <DataArray type="Int32" Name="offsets" format="ascii">
      2
      4
        </DataArray>
      </Lines>
    </Piece>
  </PolyData>
</VTKFile>
