<?xml version="1.0"?>
<VTKFile type="PolyData" version="0.1" byte_order="LittleEndian">
  <PolyData>
    <Piece NumberOfPoints="      3" NumberOfVerts="  0" NumberOfLines="      2"
           NumberOfStrips="  0" NumberOfPolys="      0">
      <Points>
        <DataArray type="Float32" NumberOfComponents="3" format="ascii">
                      34.15204                      -0.85816                     147.83868
                      34.15241                      -0.85820                     147.84367
                      34.15168                      -0.85812                     147.83370
        </DataArray>
      </Points>
      <PointData>
        <DataArray type="Float32" Name="TranslationalVelocity" NumberOfComponents="3" format="ascii">
                       0.09939                       0.04915                       0.04753
                       0.09939                       0.04915                       0.04753
                       0.09938                       0.04915                       0.04753
        </DataArray>
        <DataArray type="Float32" Name="RotationalVelocity" NumberOfComponents="3" format="ascii">
                      -0.00041                       0.00010                      -0.00035
                      -0.00041                       0.00010                      -0.00035
                      -0.00041                       0.00010                      -0.00035
        </DataArray>
        <DataArray type="Float32" Name="TranslationalAcceleration" NumberOfComponents="3" format="ascii">
                      -0.00528                       0.01877                      -0.00957
                      -0.00527                       0.01877                      -0.00957
                      -0.00528                       0.01877                      -0.00957
        </DataArray>
        <DataArray type="Float32" Name="RotationalAcceleration" NumberOfComponents="3" format="ascii">
                      -0.00010                       0.00064                       0.00022
                      -0.00010                       0.00064                       0.00022
                      -0.00010                       0.00064                       0.00022
        </DataArray>
        <DataArray type="Float32" Name="OrientationX" NumberOfComponents="3" format="ascii">
                       0.99735                       0.00490                      -0.07259
                       0.99735                       0.00490                      -0.07259
                       0.99735                       0.00490                      -0.07259
        </DataArray>
        <DataArray type="Float32" Name="OrientationY" NumberOfComponents="3" format="ascii">
                      -0.00428                       0.99995                       0.00874
                      -0.00428                       0.99995                       0.00874
                      -0.00428                       0.99995                       0.00874
        </DataArray>
        <DataArray type="Float32" Name="OrientationZ" NumberOfComponents="3" format="ascii">
                       0.07263                      -0.00841                       0.99732
                       0.07263                      -0.00841                       0.99732
                       0.07263                      -0.00841                       0.99732
        </DataArray>
      </PointData>
      <Lines>
        <DataArray type="Int32" Name="connectivity" format="ascii">
      0      1
      2      0
        </DataArray>
        <DataArray type="Int32" Name="offsets" format="ascii">
      2
      4
        </DataArray>
      </Lines>
    </Piece>
  </PolyData>
</VTKFile>
