<?xml version="1.0"?>
<VTKFile type="PolyData" version="0.1" byte_order="LittleEndian">
  <PolyData>
    <Piece NumberOfPoints="      3" NumberOfVerts="  0" NumberOfLines="      2"
           NumberOfStrips="  0" NumberOfPolys="      0">
      <Points>
        <DataArray type="Float32" NumberOfComponents="3" format="ascii">
                      26.71648                      -0.40213                     147.74707
                      26.71686                      -0.40217                     147.75206
                      26.71610                      -0.40210                     147.74209
        </DataArray>
      </Points>
      <PointData>
        <DataArray type="Float32" Name="TranslationalVelocity" NumberOfComponents="3" format="ascii">
                      -0.10004                       0.10885                      -0.05738
                      -0.10004                       0.10885                      -0.05738
                      -0.10004                       0.10884                      -0.05738
        </DataArray>
        <DataArray type="Float32" Name="RotationalVelocity" NumberOfComponents="3" format="ascii">
                      -0.00081                      -0.00013                      -0.00010
                      -0.00081                      -0.00013                      -0.00010
                      -0.00081                      -0.00013                      -0.00010
        </DataArray>
        <DataArray type="Float32" Name="TranslationalAcceleration" NumberOfComponents="3" format="ascii">
                       0.02004                       0.00431                       0.00101
                       0.02004                       0.00431                       0.00101
                       0.02004                       0.00431                       0.00101
        </DataArray>
        <DataArray type="Float32" Name="RotationalAcceleration" NumberOfComponents="3" format="ascii">
                      -0.00002                       0.00060                       0.00012
                      -0.00002                       0.00060                       0.00012
                      -0.00002                       0.00060                       0.00012
        </DataArray>
        <DataArray type="Float32" Name="OrientationX" NumberOfComponents="3" format="ascii">
                       0.99711                       0.00413                      -0.07581
                       0.99711                       0.00413                      -0.07581
                       0.99711                       0.00413                      -0.07581
        </DataArray>
        <DataArray type="Float32" Name="OrientationY" NumberOfComponents="3" format="ascii">
                      -0.00357                       0.99997                       0.00747
                      -0.00357                       0.99997                       0.00747
                      -0.00357                       0.99997                       0.00747
        </DataArray>
        <DataArray type="Float32" Name="OrientationZ" NumberOfComponents="3" format="ascii">
                       0.07584                      -0.00718                       0.99709
                       0.07584                      -0.00718                       0.99709
                       0.07584                      -0.00718                       0.99709
        </DataArray>
      </PointData>
      <Lines>
        <DataArray type="Int32" Name="connectivity" format="ascii">
      0      1
      2      0
        </DataArray>
        <DataArray type="Int32" Name="offsets" format="ascii">
      2
      4
        </DataArray>
      </Lines>
    </Piece>
  </PolyData>
</VTKFile>
