<?xml version="1.0"?>
<VTKFile type="PolyData" version="0.1" byte_order="LittleEndian">
  <PolyData>
    <Piece NumberOfPoints="     50" NumberOfVerts="  0" NumberOfLines="     49"
           NumberOfStrips="  0" NumberOfPolys="      0">
      <Points>
        <DataArray type="Float32" NumberOfComponents="3" format="ascii">
                      14.80407                       1.05232                     146.65227
                      14.28712                       2.09199                     144.56421
                      13.76799                       3.16313                     142.49372
                      13.24082                       4.29629                     140.45887
                      12.71128                       5.47143                     138.44737
                      12.18466                       6.66948                     136.44755
                      11.66547                       7.86928                     134.44685
                      11.15677                       9.04103                     132.42846
                      10.65807                      10.17183                     130.38563
                      10.15913                      11.30888                     128.34643
                       9.65915                      12.44568                     126.30751
                       9.16139                      13.56905                     124.26091
                       8.67178                      14.66256                     122.19632
                       8.19066                      15.73880                     120.12051
                       7.71688                      16.81961                     118.04552
                       7.25112                      17.90537                     115.97142
                       6.79393                      18.99444                     113.89724
                       6.34636                      20.08684                     111.82278
                       5.90670                      21.18070                     109.74743
                       5.47089                      22.27494                     107.67143
                       5.03621                      23.36919                     105.59506
                       4.60017                      24.46387                     103.51886
                       4.16559                      25.56007                     101.44272
                       3.73621                      26.65861                      99.36623
                       3.31435                      27.75930                      97.28878
                       2.90343                      28.86233                      95.20985
                       2.50348                      29.96784                      93.12947
                       2.10713                      31.07586                      91.04871
                       1.71256                      32.18519                      88.96700
                       1.32003                      33.29641                      86.88432
                       0.93360                      34.40939                      84.79981
                       0.55631                      35.52399                      82.71283
                       0.19182                      36.63963                      80.62256
                      -0.15746                      37.75598                      78.52853
                      -0.48910                      38.87274                      76.43040
                      -0.80827                      39.98967                      74.32855
                      -1.11683                      41.10666                      72.22305
                      -1.41320                      42.22316                      70.11344
                      -1.69683                      43.33877                      67.99954
                      -1.96624                      44.45299                      65.88109
                      -2.22039                      45.56633                      63.75849
                      -2.45970                      46.67895                      61.63209
                      -2.68429                      47.79091                      59.50223
                      -2.89737                      48.90175                      57.36910
                      -3.09923                      50.01114                      55.23294
                      -3.29063                      51.11884                      53.09414
                      -3.47233                      52.22497                      50.95338
                      -3.64606                      53.32988                      48.81158
                      -3.81187                      54.43307                      46.66938
                      -3.98432                      55.40899                      44.46277
        </DataArray>
      </Points>
      <PointData>
        <DataArray type="Float32" Name="TranslationalVelocity" NumberOfComponents="3" format="ascii">
                       0.39790                       2.44435                       1.25949
                       0.52063                       3.98808                       1.99774
                       0.64748                       5.51950                       2.75821
                       0.78244                       7.02646                       3.56245
                       0.92288                       8.51683                       4.39617
                       1.06626                       9.99810                       5.24578
                       1.20978                      11.47852                       6.09627
                       1.34952                      12.96951                       6.92652
                       1.48377                      14.47586                       7.72746
                       1.61869                      15.97901                       8.53246
                       1.75340                      17.48143                       9.33693
                       1.88616                      18.98831                      10.13158
                       2.01480                      20.50614                      10.90482
                       2.14095                      22.03012                      11.66555
                       2.26744                      23.55191                      12.42918
                       2.39431                      25.07139                      13.19599
                       2.52134                      26.58922                      13.96481
                       2.64852                      28.10542                      14.73568
                       2.77562                      29.62065                      15.50728
                       2.90250                      31.13528                      16.27889
                       3.02914                      32.64948                      17.05028
                       3.15558                      34.16318                      17.82175
                       3.28200                      35.67615                      18.59406
                       3.40850                      37.18817                      19.36777
                       3.53508                      38.69941                      20.14271
                       3.66179                      40.20979                      20.91900
                       3.78867                      41.71929                      21.69672
                       3.91575                      43.22807                      22.47591
                       4.04290                      44.73676                      23.25574
                       4.17024                      46.24531                      24.03659
                       4.29776                      47.75380                      24.81833
                       4.42548                      49.26227                      25.60079
                       4.55336                      50.77080                      26.38356
                       4.68138                      52.27940                      27.16634
                       4.80954                      53.78797                      27.94891
                       4.93784                      55.29686                      28.73108
                       5.06629                      56.80624                      29.51279
                       5.19486                      58.31620                      30.29360
                       5.32353                      59.82678                      31.07325
                       5.45225                      61.33796                      31.85136
                       5.58112                      62.84933                      32.62827
                       5.71018                      64.36069                      33.40411
                       5.83946                      65.87185                      34.17893
                       5.96894                      67.38311                      34.95245
                       6.09859                      68.89440                      35.72449
                       6.22839                      70.40563                      36.49492
                       6.35837                      71.91649                      37.26390
                       6.48859                      73.42672                      38.03177
                       6.61897                      74.93603                      38.79828
                       6.73349                      76.49093                      39.47632
        </DataArray>
        <DataArray type="Float32" Name="RotationalVelocity" NumberOfComponents="3" format="ascii">
                       0.70756                       0.00511                      -0.12834
                       0.70751                       0.00512                      -0.12832
                       0.70741                       0.00511                      -0.12830
                       0.70726                       0.00511                      -0.12826
                       0.70705                       0.00510                      -0.12821
                       0.70682                       0.00509                      -0.12815
                       0.70655                       0.00509                      -0.12808
                       0.70627                       0.00509                      -0.12800
                       0.70597                       0.00511                      -0.12791
                       0.70566                       0.00513                      -0.12782
                       0.70535                       0.00517                      -0.12771
                       0.70505                       0.00521                      -0.12761
                       0.70474                       0.00526                      -0.12750
                       0.70444                       0.00532                      -0.12739
                       0.70415                       0.00538                      -0.12728
                       0.70387                       0.00545                      -0.12716
                       0.70360                       0.00552                      -0.12705
                       0.70334                       0.00559                      -0.12694
                       0.70309                       0.00566                      -0.12684
                       0.70284                       0.00573                      -0.12674
                       0.70261                       0.00580                      -0.12664
                       0.70237                       0.00586                      -0.12654
                       0.70215                       0.00592                      -0.12645
                       0.70192                       0.00596                      -0.12636
                       0.70170                       0.00600                      -0.12628
                       0.70147                       0.00604                      -0.12620
                       0.70124                       0.00605                      -0.12613
                       0.70100                       0.00606                      -0.12606
                       0.70076                       0.00606                      -0.12600
                       0.70050                       0.00604                      -0.12594
                       0.70024                       0.00601                      -0.12588
                       0.69997                       0.00597                      -0.12583
                       0.69968                       0.00591                      -0.12579
                       0.69938                       0.00584                      -0.12574
                       0.69907                       0.00576                      -0.12571
                       0.69874                       0.00566                      -0.12567
                       0.69841                       0.00556                      -0.12564
                       0.69807                       0.00544                      -0.12561
                       0.69772                       0.00531                      -0.12559
                       0.69737                       0.00517                      -0.12557
                       0.69702                       0.00503                      -0.12555
                       0.69668                       0.00487                      -0.12554
                       0.69635                       0.00472                      -0.12554
                       0.69605                       0.00456                      -0.12554
                       0.69577                       0.00439                      -0.12555
                       0.69552                       0.00423                      -0.12558
                       0.69533                       0.00408                      -0.12561
                       0.69519                       0.00393                      -0.12565
                       0.69513                       0.00379                      -0.12571
                       0.69513                       0.00366                      -0.12578
        </DataArray>
        <DataArray type="Float32" Name="TranslationalAcceleration" NumberOfComponents="3" format="ascii">
                       0.33033                      -0.94252                       1.76473
                       0.53305                      -1.48338                       2.85478
                       0.73428                      -2.04034                       3.93597
                       0.93262                      -2.62903                       4.99958
                       1.12905                      -3.23891                       6.05119
                       1.32451                      -3.85996                       7.09610
                       1.52003                      -4.48115                       8.14015
                       1.71701                      -5.08703                       9.19142
                       1.91606                      -5.67097                      10.25327
                       2.11499                      -6.25727                      11.31249
                       2.31415                      -6.84259                      12.37082
                       2.51417                      -7.42015                      13.43190
                       2.71585                      -7.98152                      14.50034
                       2.91865                      -8.53320                      15.57271
                       3.12162                      -9.08642                      16.64313
                       3.32477                      -9.64141                      17.71152
                       3.52822                     -10.19733                      18.77835
                       3.73198                     -10.75421                      19.84365
                       3.93618                     -11.31113                      20.90789
                       4.14087                     -11.86756                      21.97134
                       4.34609                     -12.42334                      23.03411
                       4.55187                     -12.97870                      24.09614
                       4.75821                     -13.53420                      25.15726
                       4.96511                     -14.09025                      26.21736
                       5.17262                     -14.64675                      27.27655
                       5.38076                     -15.20380                      28.33478
                       5.58955                     -15.76146                      29.39205
                       5.79904                     -16.31972                      30.44842
                       6.00933                     -16.87798                      31.50430
                       6.22045                     -17.43649                      32.55965
                       6.43242                     -17.99516                      33.61451
                       6.64529                     -18.55388                      34.66893
                       6.85909                     -19.11234                      35.72296
                       7.07384                     -19.67033                      36.77662
                       7.28955                     -20.22769                      37.82983
                       7.50629                     -20.78426                      38.88279
                       7.72410                     -21.33998                      39.93560
                       7.94298                     -21.89456                      40.98831
                       8.16297                     -22.44779                      42.04095
                       8.38405                     -22.99943                      43.09351
                       8.60619                     -23.54975                      44.14572
                       8.82934                     -24.09888                      45.19746
                       9.05348                     -24.64688                      46.24862
                       9.27860                     -25.19359                      47.29942
                       9.50467                     -25.73892                      48.34985
                       9.73162                     -26.28286                      49.39989
                       9.95936                     -26.82561                      50.44943
                      10.18778                     -27.36753                      51.49835
                      10.41675                     -27.90855                      52.54658
                      10.65154                     -28.38595                      53.62608
        </DataArray>
        <DataArray type="Float32" Name="OrientationX" NumberOfComponents="3" format="ascii">
                       0.95599                       0.27997                      -0.08778
                       0.95579                       0.28036                      -0.08874
                       0.95563                       0.27940                      -0.09335
                       0.95636                       0.27433                      -0.10062
                       0.95837                       0.26455                      -0.10740
                       0.96134                       0.25095                      -0.11337
                       0.96490                       0.23449                      -0.11825
                       0.96854                       0.21662                      -0.12249
                       0.97126                       0.20001                      -0.12905
                       0.97294                       0.18558                      -0.13765
                       0.97436                       0.17245                      -0.14451
                       0.97591                       0.16020                      -0.14813
                       0.97750                       0.14844                      -0.14987
                       0.97881                       0.13702                      -0.15218
                       0.97988                       0.12613                      -0.15466
                       0.98087                       0.11555                      -0.15663
                       0.98181                       0.10537                      -0.15795
                       0.98261                       0.09601                      -0.15894
                       0.98311                       0.08795                      -0.16052
                       0.98328                       0.08130                      -0.16293
                       0.98321                       0.07566                      -0.16603
                       0.98312                       0.07039                      -0.16886
                       0.98325                       0.06482                      -0.17032
                       0.98359                       0.05897                      -0.17050
                       0.98412                       0.05281                      -0.16946
                       0.98475                       0.04650                      -0.16764
                       0.98508                       0.04115                      -0.16709
                       0.98507                       0.03699                      -0.16811
                       0.98501                       0.03325                      -0.16926
                       0.98509                       0.02931                      -0.16952
                       0.98540                       0.02479                      -0.16843
                       0.98591                       0.01965                      -0.16609
                       0.98658                       0.01388                      -0.16267
                       0.98734                       0.00747                      -0.15847
                       0.98792                       0.00100                      -0.15498
                       0.98819                      -0.00536                      -0.15311
                       0.98835                      -0.01239                      -0.15168
                       0.98851                      -0.01964                      -0.14990
                       0.98868                      -0.02679                      -0.14762
                       0.98893                      -0.03351                      -0.14457
                       0.98923                      -0.03934                      -0.14099
                       0.98969                      -0.04317                      -0.13657
                       0.99016                      -0.04564                      -0.13227
                       0.99060                      -0.04727                      -0.12838
                       0.99105                      -0.04829                      -0.12446
                       0.99151                      -0.04866                      -0.12056
                       0.99198                      -0.04822                      -0.11683
                       0.99249                      -0.04684                      -0.11300
                       0.99297                      -0.04428                      -0.10979
                       0.99354                      -0.04119                      -0.10574
        </DataArray>
        <DataArray type="Float32" Name="OrientationY" NumberOfComponents="3" format="ascii">
                       0.20028                      -0.84130                      -0.50209
                       0.20012                      -0.84124                      -0.50227
                       0.19696                      -0.84165                      -0.50282
                       0.18901                      -0.84339                      -0.50296
                       0.17740                      -0.84648                      -0.50200
                       0.16304                      -0.85049                      -0.50009
                       0.14682                      -0.85498                      -0.49744
                       0.12969                      -0.85947                      -0.49446
                       0.11243                      -0.86334                      -0.49194
                       0.09597                      -0.86649                      -0.48988
                       0.08147                      -0.86912                      -0.48785
                       0.06930                      -0.87133                      -0.48577
                       0.05845                      -0.87327                      -0.48372
                       0.04759                      -0.87501                      -0.48176
                       0.03709                      -0.87654                      -0.47990
                       0.02708                      -0.87790                      -0.47808
                       0.01772                      -0.87908                      -0.47634
                       0.00920                      -0.88007                      -0.47475
                       0.00151                      -0.88086                      -0.47337
                      -0.00537                      -0.88148                      -0.47219
                      -0.01169                      -0.88198                      -0.47114
                      -0.01757                      -0.88242                      -0.47013
                      -0.02306                      -0.88284                      -0.46910
                      -0.02819                      -0.88324                      -0.46807
                      -0.03301                      -0.88361                      -0.46705
                      -0.03760                      -0.88395                      -0.46606
                      -0.04196                      -0.88424                      -0.46514
                      -0.04602                      -0.88449                      -0.46429
                      -0.04978                      -0.88471                      -0.46347
                      -0.05329                      -0.88494                      -0.46265
                      -0.05667                      -0.88516                      -0.46182
                      -0.06001                      -0.88538                      -0.46097
                      -0.06340                      -0.88560                      -0.46010
                      -0.06700                      -0.88580                      -0.45920
                      -0.07098                      -0.88600                      -0.45822
                      -0.07564                      -0.88618                      -0.45713
                      -0.08108                      -0.88634                      -0.45589
                      -0.08656                      -0.88646                      -0.45464
                      -0.09172                      -0.88656                      -0.45343
                      -0.09617                      -0.88664                      -0.45235
                      -0.09960                      -0.88673                      -0.45143
                      -0.10090                      -0.88689                      -0.45083
                      -0.10106                      -0.88710                      -0.45038
                      -0.10066                      -0.88733                      -0.45002
                      -0.09972                      -0.88757                      -0.44975
                      -0.09824                      -0.88781                      -0.44960
                      -0.09612                      -0.88805                      -0.44958
                      -0.09313                      -0.88830                      -0.44973
                      -0.08938                      -0.88853                      -0.45002
                      -0.08479                      -0.88875                      -0.45049
        </DataArray>
        <DataArray type="Float32" Name="OrientationZ" NumberOfComponents="3" format="ascii">
                      -0.21442                       0.46241                      -0.86035
                      -0.21546                       0.46230                      -0.86015
                      -0.21905                       0.46212                      -0.85934
                      -0.22284                       0.46199                      -0.85843
                      -0.22371                       0.46205                      -0.85817
                      -0.22191                       0.46227                      -0.85852
                      -0.21775                       0.46262                      -0.85940
                      -0.21239                       0.46302                      -0.86052
                      -0.20981                       0.46329                      -0.86101
                      -0.21018                       0.46342                      -0.86085
                      -0.20973                       0.46357                      -0.86088
                      -0.20689                       0.46380                      -0.86144
                      -0.20268                       0.46408                      -0.86229
                      -0.19917                       0.46431                      -0.86299
                      -0.19610                       0.46451                      -0.86358
                      -0.19275                       0.46469                      -0.86424
                      -0.18904                       0.46487                      -0.86496