<?xml version="1.0"?>
<VTKFile type="PolyData" version="0.1" byte_order="LittleEndian">
  <PolyData>
    <Piece NumberOfPoints="     50" NumberOfVerts="  0" NumberOfLines="     49"
           NumberOfStrips="  0" NumberOfPolys="      0">
      <Points>
        <DataArray type="Float32" NumberOfComponents="3" format="ascii">
                      20.47187                       2.27505                     147.75049
                      20.06873                       4.12152                     146.28892
                      19.66528                       5.98933                     144.85636
                      19.25758                       7.89910                     143.48192
                      18.85012                       9.83731                     142.14595
                      18.44710                      11.79110                     140.82981
                      18.05178                      13.74615                     139.51319
                      17.66546                      15.68213                     138.16838
                      17.28689                      17.59017                     136.78389
                      16.90865                      19.50217                     135.40492
                      16.52957                      21.41368                     134.02574
                      16.15213                      23.31580                     132.63360
                      15.78130                      25.19742                     131.21227
                      15.41819                      27.06716                     129.77311
                      15.06298                      28.93994                     128.33614
                      14.71636                      30.81604                     126.90160
                      14.37884                      32.69434                     125.46789
                      14.05145                      34.57486                     124.03486
                      13.73240                      36.45628                     122.60120
                      13.41758                      38.33783                     121.16673
                      13.10428                      40.21928                     119.73158
                      12.79005                      42.10096                     118.29646
                      12.47781                      43.98371                     116.86166
                      12.17141                      45.86818                     115.42711
                      11.87316                      47.75426                     113.99215
                      11.58656                      49.64212                     112.55635
                      11.31168                      51.53184                     111.11977
                      11.04118                      53.42354                     109.68346
                      10.77322                      55.31653                     108.24640
                      10.50814                      57.21130                     106.80880
                      10.25005                      59.10778                     105.36974
                      10.00204                      61.00585                     103.92855
                       9.76775                      62.90508                     102.48418
                       9.54963                      64.80511                     101.03603
                       9.35013                      66.70564                      99.58362
                       9.16410                      68.60665                      98.12725
                       8.98973                      70.50812                      96.66689
                       8.82859                      72.40961                      95.20192
                       8.68121                      74.31078                      93.73195
                       8.54907                      76.21114                      92.25657
                       8.43327                      78.11088                      90.77631
                       8.33338                      80.01002                      89.29160
                       8.24928                      81.90849                      87.80279
                       8.17774                      83.80603                      86.30992
                       8.11840                      85.70227                      84.81313
                       8.07045                      87.59692                      83.31275
                       8.03308                      89.48988                      81.80952
                       8.00449                      91.38127                      80.30454
                       7.98452                      93.27040                      78.79829
                       7.95090                      95.07038                      77.18130
        </DataArray>
      </Points>
      <PointData>
        <DataArray type="Float32" Name="TranslationalVelocity" NumberOfComponents="3" format="ascii">
                       0.25908                       1.72873                       2.36120
                       0.50083                       2.85994                       3.72363
                       0.74551                       3.96974                       5.10171
                       0.99601                       5.03713                       6.51054
                       1.25046                       6.07597                       7.94008
                       1.50706                       7.09941                       9.38076
                       1.76385                       8.12194                      10.82197
                       2.01799                       9.16379                      12.24870
                       2.26827                      10.23354                      13.65443
                       2.51909                      11.29888                      15.06264
                       2.76983                      12.36418                      16.47006
                       3.01924                      13.43849                      17.87014
                       3.26580                      14.53306                      19.25470
                       3.51070                      15.63939                      20.63010
                       3.75597                      16.74272                      22.00731
                       4.00168                      17.84283                      23.38655
                       4.24766                      18.94080                      24.76700
                       4.49394                      20.03664                      26.14868
                       4.74033                      21.13155                      27.53064
                       4.98675                      22.22622                      28.91234
                       5.23319                      23.32092                      30.29362
                       5.47972                      24.41548                      31.67474
                       5.72647                      25.50929                      33.05630
                       5.97356                      26.60190                      34.43876
                       6.22099                      27.69348                      35.82204
                       6.46882                      28.78389                      37.20624
                       6.71709                      29.87308                      38.59141
                       6.96586                      30.96123                      39.97764
                       7.21507                      32.04936                      41.36440
                       7.46481                      33.13724                      42.75205
                       7.71513                      34.22500                      44.14047
                       7.96604                      35.31272                      45.52958
                       8.21751                      36.40063                      46.91899
                       8.46954                      37.48886                      48.30843
                       8.72214                      38.57740                      49.69764
                       8.97532                      39.66670                      51.08660
                       9.22913                      40.75701                      52.47528
                       9.48353                      41.84857                      53.86332
                       9.73852                      42.94154                      55.25047
                       9.99404                      44.03604                      56.63635
                      10.25015                      45.13150                      58.02109
                      10.50688                      46.22767                      59.40475
                      10.76422                      47.32431                      60.78726
                      11.02215                      48.42182                      62.16849
                      11.28062                      49.52017                      63.54821
                      11.53958                      50.61928                      64.92628
                      11.79901                      51.71872                      66.30270
                      12.05889                      52.81801                      67.67769
                      12.31910                      53.91687                      69.05087
                      12.56777                      55.09809                      70.35912
        </DataArray>
        <DataArray type="Float32" Name="RotationalVelocity" NumberOfComponents="3" format="ascii">
                       0.73710                       0.00354                      -0.13374
                       0.73706                       0.00354                      -0.13372
                       0.73699                       0.00354                      -0.13371
                       0.73688                       0.00352                      -0.13370
                       0.73674                       0.00349                      -0.13369
                       0.73657                       0.00347                      -0.13368
                       0.73639                       0.00343                      -0.13366
                       0.73619                       0.00340                      -0.13364
                       0.73598                       0.00337                      -0.13362
                       0.73576                       0.00334                      -0.13359
                       0.73555                       0.00331                      -0.13356
                       0.73533                       0.00329                      -0.13353
                       0.73511                       0.00326                      -0.13350
                       0.73490                       0.00324                      -0.13347
                       0.73469                       0.00321                      -0.13344
                       0.73449                       0.00319                      -0.13341
                       0.73430                       0.00317                      -0.13338
                       0.73411                       0.00314                      -0.13336
                       0.73393                       0.00311                      -0.13334
                       0.73375                       0.00308                      -0.13333
                       0.73358                       0.00304                      -0.13332
                       0.73341                       0.00300                      -0.13332
                       0.73324                       0.00295                      -0.13334
                       0.73307                       0.00290                      -0.13336
                       0.73290                       0.00284                      -0.13339
                       0.73273                       0.00277                      -0.13343
                       0.73255                       0.00269                      -0.13348
                       0.73237                       0.00260                      -0.13355
                       0.73218                       0.00250                      -0.13362
                       0.73198                       0.00239                      -0.13371
                       0.73177                       0.00227                      -0.13381
                       0.73155                       0.00214                      -0.13392
                       0.73132                       0.00200                      -0.13404
                       0.73108                       0.00184                      -0.13417
                       0.73084                       0.00168                      -0.13431
                       0.73058                       0.00151                      -0.13447
                       0.73031                       0.00133                      -0.13463
                       0.73003                       0.00114                      -0.13479
                       0.72974                       0.00095                      -0.13497
                       0.72946                       0.00075                      -0.13515
                       0.72917                       0.00054                      -0.13534
                       0.72889                       0.00034                      -0.13553
                       0.72862                       0.00013                      -0.13572
                       0.72836                      -0.00007                      -0.13591
                       0.72813                      -0.00027                      -0.13611
                       0.72792                      -0.00046                      -0.13630
                       0.72775                      -0.00064                      -0.13649
                       0.72762                      -0.00080                      -0.13668
                       0.72755                      -0.00095                      -0.13686
                       0.72753                      -0.00108                      -0.13703
        </DataArray>
        <DataArray type="Float32" Name="TranslationalAcceleration" NumberOfComponents="3" format="ascii">
                       0.24163                      -1.74624                       1.30913
                       0.39937                      -2.78194                       2.14270
                       0.55431                      -3.82943                       2.96051
                       0.70376                      -4.90010                       3.74716
                       0.84957                      -5.98619                       4.51292
                       0.99349                      -7.08032                       5.26753
                       1.13746                      -8.17434                       6.02171
                       1.28415                      -9.25672                       6.79033
                       1.43473                     -10.32242                       7.57968
                       1.58500                     -11.38938                       8.36601
                       1.73559                     -12.45505                       9.15252
                       1.88769                     -13.51442                       9.94584
                       2.04281                     -14.56126                      10.75419
                       2.19984                     -15.60042                      11.57132
                       2.35691                     -16.64032                      12.38639
                       2.51401                     -17.68112                      13.19923
                       2.67129                     -18.72225                      14.01064
                       2.82877                     -19.76373                      14.82060
                       2.98662                     -20.80488                      15.63000
                       3.14494                     -21.84527                      16.43932
                       3.30378                     -22.88481                      17.24876
                       3.46312                     -23.92369                      18.05817
                       3.62288                     -24.96240                      18.86710
                       3.78302                     -26.00132                      19.67524
                       3.94356                     -27.04039                      20.48270
                       4.10448                     -28.07973                      21.28941
                       4.26578                     -29.11936                      22.09530
                       4.42748                     -30.15934                      22.90052
                       4.58972                     -31.19923                      23.70580
                       4.75247                     -32.23930                      24.51098
                       4.91573                     -33.27947                      25.31616
                       5.07953                     -34.31967                      26.12140
                       5.24389                     -35.35962                      26.92691
                       5.40882                     -36.39912                      27.73277
                       5.57430                     -37.43796                      28.53899
                       5.74040                     -38.47609                      29.34589
                       5.90714                     -39.51346                      30.15364
                       6.07453                     -40.54982                      30.96242
                       6.24260                     -41.58494                      31.77235
                       6.41135                     -42.61858                      32.58350
                       6.58067                     -43.65086                      33.39547
                       6.75052                     -44.68183                      34.20806
                       6.92084                     -45.71149                      35.02108
                       7.09165                     -46.73976                      35.83481
                       7.26293                     -47.76654                      36.64922
                       7.43461                     -48.79180                      37.46419
                       7.60659                     -49.81564                      38.27943
                       7.77878                     -50.83835                      39.09453
                       7.95106                     -51.85980                      39.90927
                       8.13450                     -52.83144                      40.78298
        </DataArray>
        <DataArray type="Float32" Name="OrientationX" NumberOfComponents="3" format="ascii">
                       0.97482                       0.22161                       0.02467
                       0.97466                       0.22238                       0.02395
                       0.97453                       0.22344                       0.01936
                       0.97504                       0.22179                       0.01065
                       0.97649                       0.21556                       0.00041
                       0.97861                       0.20545                      -0.01067
                       0.98110                       0.19224                      -0.02194
                       0.98357                       0.17747                      -0.03322
                       0.98524                       0.16487                      -0.04606
                       0.98608                       0.15514                      -0.05983
                       0.98671                       0.14590                      -0.07148
                       0.98748                       0.13609                      -0.07981
                       0.98828                       0.12594                      -0.08622
                       0.98885                       0.11635                      -0.09299
                       0.98921                       0.10732                      -0.09970
                       0.98951                       0.09835                      -0.10581
                       0.98977                       0.08949                      -0.11115
                       0.98994                       0.08122                      -0.11584
                       0.98992                       0.07440                      -0.12053
                       0.98969                       0.06921                      -0.12538
                       0.98931                       0.06524                      -0.13042
                       0.98893                       0.06148                      -0.13508
                       0.98872                       0.05685                      -0.13860
                       0.98867                       0.05142                      -0.14105
                       0.98876                       0.04517                      -0.14252
                       0.98893                       0.03845                      -0.14333
                       0.98889                       0.03313                      -0.14489
                       0.98864                       0.02955                      -0.14737
                       0.98836                       0.02640                      -0.14980
                       0.98820                       0.02267                      -0.15149
                       0.98819                       0.01783                      -0.15217
                       0.98831                       0.01189                      -0.15197
                       0.98852                       0.00491                      -0.15102
                       0.98874                      -0.00299                      -0.14963
                       0.98880                      -0.01066                      -0.14888
                       0.98860                      -0.01754                      -0.14957
                       0.98823                      -0.02485                      -0.15092
                       0.98784                      -0.03251                      -0.15204
                       0.98746                      -0.04029                      -0.15265
                       0.98715                      -0.04799                      -0.15239
                       0.98695                      -0.05512                      -0.15127
                       0.98703                      -0.06077                      -0.14857
                       0.98722                      -0.06513                      -0.14543
                       0.98744                      -0.06854                      -0.14233
                       0.98772                      -0.07141                      -0.13895
                       0.98806                      -0.07366                      -0.13534
                       0.98846                      -0.07507                      -0.13157
                       0.98897                      -0.07566                      -0.12735
                       0.98955                      -0.07489                      -0.12323
                       0.99024                      -0.07395                      -0.11814
        </DataArray>
        <DataArray type="Float32" Name="OrientationY" NumberOfComponents="3" format="ascii">
                       0.14985                      -0.56918                      -0.80844
                       0.14970                      -0.56906                      -0.80856
                       0.14654                      -0.56902                      -0.80916
                       0.13851                      -0.57004                      -0.80986
                       0.12672                      -0.57250                      -0.81005
                       0.11210                      -0.57601                      -0.80972
                       0.09558                      -0.58014                      -0.80889
                       0.07815                      -0.58435                      -0.80773
                       0.06065                      -0.58781                      -0.80673
                       0.04400                      -0.59047                      -0.80586
                       0.02935                      -0.59280                      -0.80482
                       0.01704                      -0.59494                      -0.80359
                       0.00607                      -0.59690                      -0.80229
                      -0.00489                      -0.59865                      -0.80100
                      -0.01549                      -0.60019                      -0.79971
                      -0.02558                      -0.60158                      -0.79840
                      -0.03501                      -0.60283                      -0.79710
                      -0.04359                      -0.60389                      -0.79587
                      -0.05132                      -0.60474                      -0.79477
                      -0.05823                      -0.60540                      -0.79379
                      -0.06457                      -0.60594                      -0.79288
                      -0.07048                      -0.60645                      -0.79199
                      -0.07599                      -0.60696                      -0.79109
                      -0.08114                      -0.60748                      -0.79018
                      -0.08599                      -0.60799                      -0.78927
                      -0.09060                      -0.60849                      -0.78838
                      -0.09499                      -0.60892                      -0.78753
                      -0.09906                      -0.60930                      -0.78673
                      -0.10284                      -0.60968                      -0.78595
                      -0.10637                      -0.61008                      -0.78517
                      -0.10977                      -0.61050                      -0.78437
                      -0.11313                      -0.61093                      -0.78356
                      -0.11654                      -0.61136                      -0.78272
                      -0.12017                      -0.61179                      -0.78184
                      -0.12418                      -0.61221                      -0.78089
                      -0.12885                      -0.61262                      -0.77980
                      -0.13432                      -0.61300                      -0.77858
                      -0.13983                      -0.61337                      -0.77732
                      -0.14502                      -0.61371                      -0.77610
                      -0.14949                      -0.61404                      -0.77499
                      -0.15295                      -0.61438                      -0.77404
                      -0.15427                      -0.61482                      -0.77343
                      -0.15447                      -0.61532                      -0.77299
                      -0.15411                      -0.61584                      -0.77265
                      -0.15322                      -0.61636                      -0.77242
                      -0.15177                      -0.61686                      -0.77230
                      -0.14969                      -0.61733                      -0.77233
                      -0.14674                      -0.61778                      -0.77253
                      -0.14303                      -0.61819                      -0.77290
                      -0.13847                      -0.61855                      -0.77344
        </DataArray>
        <DataArray type="Float32" Name="OrientationZ" NumberOfComponents="3" format="ascii">
                      -0.16512                       0.79179                      -0.58806
                      -0.16618                       0.79166                      -0.58793
                      -0.16978                       0.79138                      -0.58727
                      -0.17355                       0.79111                      -0.58653
                      -0.17438                       0.79106                      -0.58636
                      -0.17250                       0.79120                      -0.58672
                      -0.16823                       0.79150                      -0.58755
                      -0.16276                       0.79186                      -0.58862
                      -0.16008                       0.79202                      -0.58913
                      -0.16035                       0.79201                      -0.58908
                      -0.15980                       0.79203                      -0.58920
                      -0.15684                       0.79217                      -0.58980
                      -0.15250                       0.79237                      -0.59067
                      -0.14886                       0.79252                      -0.59140
                      -0.14566                       0.79263                      -0.59205
                      -0.14218                       0.79273                      -0.59276
                      -0.13833                       0.79284                      -0.59353