<?xml version="1.0"?>
<VTKFile type="PolyData" version="0.1" byte_order="LittleEndian">
  <PolyData>
    <Piece NumberOfPoints="      3" NumberOfVerts="  0" NumberOfLines="      2"
           NumberOfStrips="  0" NumberOfPolys="      0">
      <Points>
        <DataArray type="Float32" NumberOfComponents="3" format="ascii">
                      32.52502                      -0.33111                     147.74051
                      32.52538                      -0.33113                     147.74549
                      32.52465                      -0.33108                     147.73552
        </DataArray>
      </Points>
      <PointData>
        <DataArray type="Float32" Name="TranslationalVelocity" NumberOfComponents="3" format="ascii">
                       0.19932                      -0.09988                      -0.05626
                       0.19932                      -0.09988                      -0.05626
                       0.19932                      -0.09988                      -0.05626
        </DataArray>
        <DataArray type="Float32" Name="RotationalVelocity" NumberOfComponents="3" format="ascii">
                       0.00066                       0.00025                      -0.00003
                       0.00066                       0.00025                      -0.00003
                       0.00066                       0.00025                      -0.00003
        </DataArray>
        <DataArray type="Float32" Name="TranslationalAcceleration" NumberOfComponents="3" format="ascii">
                      -0.00731                      -0.00368                       0.00443
                      -0.00731                      -0.00368                       0.00443
                      -0.00731                      -0.00368                       0.00443
        </DataArray>
        <DataArray type="Float32" Name="RotationalAcceleration" NumberOfComponents="3" format="ascii">
                       0.00017                       0.00001                       0.00066
                       0.00017                       0.00001                       0.00066
                       0.00017                       0.00001                       0.00066
        </DataArray>
        <DataArray type="Float32" Name="OrientationX" NumberOfComponents="3" format="ascii">
                       0.99735                       0.00606                      -0.07248
                       0.99735                       0.00606                      -0.07248
                       0.99735                       0.00606                      -0.07248
        </DataArray>
        <DataArray type="Float32" Name="OrientationY" NumberOfComponents="3" format="ascii">
                      -0.00568                       0.99997                       0.00548
                      -0.00568                       0.99997                       0.00548
                      -0.00568                       0.99997                       0.00548
        </DataArray>
        <DataArray type="Float32" Name="OrientationZ" NumberOfComponents="3" format="ascii">
                       0.07251                      -0.00506                       0.99735
                       0.07251                      -0.00506                       0.99735
                       0.07251                      -0.00506                       0.99735
        </DataArray>
      </PointData>
      <Lines>
        <DataArray type="Int32" Name="connectivity" format="ascii">
      0      1
      2      0
        </DataArray>
        <DataArray type="Int32" Name="offsets" format="ascii">
      2
      4
        </DataArray>
      </Lines>
    </Piece>
  </PolyData>
</VTKFile>
