<?xml version="1.0"?>
<VTKFile type="PolyData" version="0.1" byte_order="LittleEndian">
  <PolyData>
    <Piece NumberOfPoints="      3" NumberOfVerts="  0" NumberOfLines="      2"
           NumberOfStrips="  0" NumberOfPolys="      0">
      <Points>
        <DataArray type="Float32" NumberOfComponents="3" format="ascii">
                      35.07564                      -0.80717                     147.72953
                      35.07601                      -0.80722                     147.73452
                      35.07527                      -0.80713                     147.72455
        </DataArray>
      </Points>
      <PointData>
        <DataArray type="Float32" Name="TranslationalVelocity" NumberOfComponents="3" format="ascii">
                      -0.22883                       0.06409                       0.06350
                      -0.22883                       0.06409                       0.06350
                      -0.22884                       0.06409                       0.06350
        </DataArray>
        <DataArray type="Float32" Name="RotationalVelocity" NumberOfComponents="3" format="ascii">
                      -0.00032                       0.00074                       0.00021
                      -0.00032                       0.00074                       0.00021
                      -0.00032                       0.00074                       0.00021
        </DataArray>
        <DataArray type="Float32" Name="TranslationalAcceleration" NumberOfComponents="3" format="ascii">
                      -0.01715                       0.02300                       0.00365
                      -0.01716                       0.02300                       0.00365
                      -0.01715                       0.02300                       0.00365
        </DataArray>
        <DataArray type="Float32" Name="RotationalAcceleration" NumberOfComponents="3" format="ascii">
                      -0.00009                      -0.00050                       0.00033
                      -0.00009                      -0.00050                       0.00033
                      -0.00009                      -0.00050                       0.00033
        </DataArray>
        <DataArray type="Float32" Name="OrientationX" NumberOfComponents="3" format="ascii">
                       0.99724                       0.00379                      -0.07420
                       0.99724                       0.00379                      -0.07420
                       0.99724                       0.00379                      -0.07420
        </DataArray>
        <DataArray type="Float32" Name="OrientationY" NumberOfComponents="3" format="ascii">
                      -0.00308                       0.99995                       0.00967
                      -0.00308                       0.99995                       0.00967
                      -0.00308                       0.99995                       0.00967
        </DataArray>
        <DataArray type="Float32" Name="OrientationZ" NumberOfComponents="3" format="ascii">
                       0.07424                      -0.00941                       0.99720
                       0.07424                      -0.00941                       0.99720
                       0.07424                      -0.00941                       0.99720
        </DataArray>
      </PointData>
      <Lines>
        <DataArray type="Int32" Name="connectivity" format="ascii">
      0      1
      2      0
        </DataArray>
        <DataArray type="Int32" Name="offsets" format="ascii">
      2
      4
        </DataArray>
      </Lines>
    </Piece>
  </PolyData>
</VTKFile>
