<?xml version="1.0"?>
<VTKFile type="PolyData" version="0.1" byte_order="LittleEndian">
  <PolyData>
    <Piece NumberOfPoints="      3" NumberOfVerts="  0" NumberOfLines="      2"
           NumberOfStrips="  0" NumberOfPolys="      0">
      <Points>
        <DataArray type="Float32" NumberOfComponents="3" format="ascii">
                      27.39916                      -0.81132                     147.97574
                      27.39953                      -0.81137                     147.98073
                      27.39878                      -0.81127                     147.97076
        </DataArray>
      </Points>
      <PointData>
        <DataArray type="Float32" Name="TranslationalVelocity" NumberOfComponents="3" format="ascii">
                      -0.16447                       0.03198                      -0.01255
                      -0.16447                       0.03198                      -0.01255
                      -0.16447                       0.03197                      -0.01255
        </DataArray>
        <DataArray type="Float32" Name="RotationalVelocity" NumberOfComponents="3" format="ascii">
                      -0.00025                       0.00022                       0.00001
                      -0.00025                       0.00022                       0.00001
                      -0.00025                       0.00022                       0.00001
        </DataArray>
        <DataArray type="Float32" Name="TranslationalAcceleration" NumberOfComponents="3" format="ascii">
                       0.01929                       0.02462                      -0.02054
                       0.01930                       0.02462                      -0.02054
                       0.01929                       0.02462                      -0.02054
        </DataArray>
        <DataArray type="Float32" Name="RotationalAcceleration" NumberOfComponents="3" format="ascii">
                      -0.00003                       0.00051                       0.00066
                      -0.00003                       0.00051                       0.00066
                      -0.00003                       0.00051                       0.00066
        </DataArray>
        <DataArray type="Float32" Name="OrientationX" NumberOfComponents="3" format="ascii">
                       0.99711                       0.00314                      -0.07594
                       0.99711                       0.00314                      -0.07594
                       0.99711                       0.00314                      -0.07594
        </DataArray>
        <DataArray type="Float32" Name="OrientationY" NumberOfComponents="3" format="ascii">
                      -0.00237                       0.99995                       0.01018
                      -0.00237                       0.99995                       0.01018
                      -0.00237                       0.99995                       0.01018
        </DataArray>
        <DataArray type="Float32" Name="OrientationZ" NumberOfComponents="3" format="ascii">
                       0.07597                      -0.00997                       0.99706
                       0.07597                      -0.00997                       0.99706
                       0.07597                      -0.00997                       0.99706
        </DataArray>
      </PointData>
      <Lines>
        <DataArray type="Int32" Name="connectivity" format="ascii">
      0      1
      2      0
        </DataArray>
        <DataArray type="Int32" Name="offsets" format="ascii">
      2
      4
        </DataArray>
      </Lines>
    </Piece>
  </PolyData>
</VTKFile>
