<?xml version="1.0"?>
<VTKFile type="PolyData" version="0.1" byte_order="LittleEndian">
  <PolyData>
    <Piece NumberOfPoints="     50" NumberOfVerts="  0" NumberOfLines="     49"
           NumberOfStrips="  0" NumberOfPolys="      0">
      <Points>
        <DataArray type="Float32" NumberOfComponents="3" format="ascii">
                      15.62983                      -4.82458                     150.54909
                      15.56867                      -7.19261                     150.86034
                      15.49544                      -9.56364                     151.13729
                      15.39469                     -11.94028                     151.34719
                      15.27845                     -14.32088                     151.51067
                      15.15809                     -16.70383                     151.64737
                      15.04486                     -19.08730                     151.77940
                      14.95119                     -21.46857                     151.93854
                      14.88065                     -23.84641                     152.13873
                      14.80827                     -26.22479                     152.33016
                      14.73537                     -28.60310                     152.51999
                      14.66944                     -30.98032                     152.72205
                      14.62171                     -33.35525                     152.95324
                      14.58869                     -35.72907                     153.19978
                      14.56252                     -38.10371                     153.43812
                      14.54382                     -40.47919                     153.66773
                      14.53375                     -42.85534                     153.89035
                      14.53339                     -45.23213                     154.10579
                      14.54165                     -47.60933                     154.31642
                      14.55484                     -49.98679                     154.52423
                      14.57040                     -52.36456                     154.73018
                      14.58579                     -54.74280                     154.93441
                      14.60356                     -57.12173                     155.13530
                      14.62724                     -59.50150                     155.33132
                      14.65925                     -61.88211                     155.52228
                      14.70292                     -64.26352                     155.70731
                      14.75827                     -66.64575                     155.88628
                      14.81800                     -69.02914                     156.06069
                      14.88075                     -71.41386                     156.23229
                      14.94664                     -73.80018                     156.40050
                      15.01978                     -76.18806                     156.56465
                      15.10321                     -78.57740                     156.72426
                      15.20069                     -80.96798                     156.87910
                      15.31464                     -83.35954                     157.02894
                      15.44745                     -85.75179                     157.17345
                      15.59417                     -88.14515                     157.31403
                      15.75298                     -90.53983                     157.45125
                      15.92555                     -92.93561                     157.58529
                      16.11247                     -95.33235                     157.71638
                      16.31525                     -97.72971                     157.84464
                      16.53464                    -100.12743                     157.96918
                      16.77006                    -102.52534                     158.08984
                      17.02122                    -104.92318                     158.20654
                      17.28507                    -107.32111                     158.32055
                      17.56123                    -109.71879                     158.43230
                      17.84885                    -112.11586                     158.54221
                      18.14694                    -114.51194                     158.65033
                      18.45346                    -116.90673                     158.75675
                      18.76822                    -119.29939                     158.86201
                      19.11563                    -121.68088                     159.10580
        </DataArray>
      </Points>
      <PointData>
        <DataArray type="Float32" Name="TranslationalVelocity" NumberOfComponents="3" format="ascii">
                      -0.72594                      -0.28126                      -2.91033
                      -1.04590                      -0.50437                      -4.67069
                      -1.36637                      -0.70036                      -6.43325
                      -1.68785                      -0.84276                      -8.19992
                      -2.01005                      -0.94855                      -9.96950
                      -2.33272                      -1.03387                     -11.74084
                      -2.65554                      -1.11668                     -13.51261
                      -2.97807                      -1.22229                     -15.28283
                      -3.30009                      -1.36157                     -17.05061
                      -3.62232                      -1.49408                     -18.81881
                      -3.94466                      -1.62533                     -20.58698
                      -4.26693                      -1.76662                     -22.35439
                      -4.58891                      -1.93204                     -24.12018
                      -4.91083                      -2.11088                     -25.88521
                      -5.23302                      -2.28455                     -27.65090
                      -5.55550                      -2.45276                     -29.41725
                      -5.87824                      -2.61693                     -31.18415
                      -6.20124                      -2.77709                     -32.95156
                      -6.52448                      -2.93486                     -34.71931
                      -6.84795                      -3.09120                     -36.48728
                      -7.17164                      -3.24648                     -38.25549
                      -7.49560                      -3.40046                     -40.02405
                      -7.81988                      -3.55227                     -41.79313
                      -8.14451                      -3.70128                     -43.56285
                      -8.46952                      -3.84766                     -45.33321
                      -8.79489                      -3.99122                     -47.10419
                      -9.12067                      -4.13186                     -48.87579
                      -9.44691                      -4.26971                     -50.64827
                      -9.77364                      -4.40588                     -52.42173
                     -10.10093                      -4.53995                     -54.19637
                     -10.42879                      -4.67199                     -55.97217
                     -10.75722                      -4.80206                     -57.74908
                     -11.08622                      -4.93050                     -59.52693
                     -11.41578                      -5.05748                     -61.30555
                     -11.74586                      -5.18309                     -63.08471
                     -12.07655                      -5.30770                     -64.86473
                     -12.40788                      -5.43147                     -66.64575
                     -12.73985                      -5.55477                     -68.42761
                     -13.07243                      -5.67788                     -70.21022
                     -13.40561                      -5.80108                     -71.99333
                     -13.73934                      -5.92383                     -73.77674
                     -14.07361                      -6.04594                     -75.56033
                     -14.40838                      -6.16732                     -77.34390
                     -14.74366                      -6.28849                     -79.12756
                     -15.07939                      -6.40974                     -80.91104
                     -15.41550                      -6.53125                     -82.69409
                     -15.75191                      -6.65295                     -84.47638
                     -16.08854                      -6.77462                     -86.25770
                     -16.42522                      -6.89665                     -88.03741
                     -16.76026                      -7.12633                     -89.80883
        </DataArray>
        <DataArray type="Float32" Name="RotationalVelocity" NumberOfComponents="3" format="ascii">
                       0.74346                       0.00320                      -0.13554
                       0.74347                       0.00320                      -0.13554
                       0.74348                       0.00320                      -0.13554
                       0.74349                       0.00320                      -0.13556
                       0.74349                       0.00319                      -0.13558
                       0.74350                       0.00319                      -0.13560
                       0.74352                       0.00319                      -0.13564
                       0.74353                       0.00318                      -0.13568
                       0.74354                       0.00318                      -0.13572
                       0.74355                       0.00317                      -0.13576
                       0.74356                       0.00317                      -0.13581
                       0.74357                       0.00316                      -0.13586
                       0.74358                       0.00315                      -0.13591
                       0.74359                       0.00315                      -0.13597
                       0.74360                       0.00314                      -0.13602
                       0.74361                       0.00313                      -0.13609
                       0.74361                       0.00313                      -0.13615
                       0.74362                       0.00312                      -0.13622
                       0.74362                       0.00311                      -0.13629
                       0.74362                       0.00310                      -0.13636
                       0.74362                       0.00310                      -0.13644
                       0.74362                       0.00309                      -0.13652
                       0.74362                       0.00308                      -0.13661
                       0.74362                       0.00307                      -0.13671
                       0.74361                       0.00306                      -0.13681
                       0.74361                       0.00305                      -0.13692
                       0.74360                       0.00303                      -0.13703
                       0.74360                       0.00302                      -0.13715
                       0.74359                       0.00301                      -0.13728
                       0.74358                       0.00300                      -0.13742
                       0.74358                       0.00298                      -0.13756
                       0.74357                       0.00297                      -0.13771
                       0.74356                       0.00295                      -0.13787
                       0.74355                       0.00293                      -0.13803
                       0.74355                       0.00292                      -0.13820
                       0.74354                       0.00290                      -0.13837
                       0.74353                       0.00288                      -0.13856
                       0.74353                       0.00286                      -0.13874
                       0.74353                       0.00284                      -0.13893
                       0.74352                       0.00282                      -0.13912
                       0.74352                       0.00280                      -0.13931
                       0.74352                       0.00278                      -0.13950
                       0.74351                       0.00276                      -0.13969
                       0.74351                       0.00274                      -0.13988
                       0.74350                       0.00272                      -0.14006
                       0.74349                       0.00271                      -0.14022
                       0.74348                       0.00269                      -0.14038
                       0.74346                       0.00268                      -0.14052
                       0.74344                       0.00266                      -0.14065
                       0.74342                       0.00265                      -0.14076
        </DataArray>
        <DataArray type="Float32" Name="TranslationalAcceleration" NumberOfComponents="3" format="ascii">
                      -0.03936                       2.27874                      -0.21077
                      -0.07511                       3.63140                      -0.37156
                      -0.10716                       4.98575                      -0.51203
                      -0.13190                       6.34321                      -0.61237
                      -0.15160                       7.70287                      -0.68509
                      -0.16846                       9.06389                      -0.74208
                      -0.18491                      10.42526                      -0.79662
                      -0.20443                      11.78556                      -0.86749
                      -0.22850                      13.14415                      -0.96271
                      -0.25165                      14.50313                      -1.05219
                      -0.27467                      15.86219                      -1.14002
                      -0.29911                      17.22080                      -1.23457
                      -0.32691                      18.57840                      -1.34634
                      -0.35666                      19.93561                      -1.46737
                      -0.38584                      21.29342                      -1.58384
                      -0.41443                      22.65184                      -1.69554
                      -0.44264                      24.01076                      -1.80357
                      -0.47049                      25.37017                      -1.90794
                      -0.49821                      26.72991                      -2.00989
                      -0.52594                      28.08993                      -2.11016
                      -0.55373                      29.45023                      -2.20904
                      -0.58155                      30.81089                      -2.30636
                      -0.60928                      32.17205                      -2.40150
                      -0.63681                      33.53377                      -2.49398
                      -0.66418                      34.89606                      -2.58395
                      -0.69133                      36.25888                      -2.67127
                      -0.71823                      37.62224                      -2.75587
                      -0.74489                      38.98634                      -2.83783
                      -0.77143                      40.35128                      -2.91798
                      -0.79778                      41.71723                      -2.99598
                      -0.82393                      43.08414                      -3.07187
                      -0.84984                      44.45199                      -3.14569
                      -0.87554                      45.82062                      -3.21767
                      -0.90103                      47.18992                      -3.28792
                      -0.92628                      48.55971                      -3.35650
                      -0.95132                      49.93023                      -3.42366
                      -0.97615                      51.30163                      -3.48951
                      -1.00079                      52.67379                      -3.55431
                      -1.02525                      54.04663                      -3.61825
                      -1.04955                      55.41998                      -3.68156
                      -1.07359                      56.79367                      -3.74384
                      -1.09734                      58.16760                      -3.80497
                      -1.12075                      59.54163                      -3.86492
                      -1.14390                      60.91584                      -3.92413
                      -1.16682                      62.29003                      -3.98286
                      -1.18952                      63.66400                      -4.04136
                      -1.21201                      65.03749                      -4.09967
                      -1.23428                      66.41030                      -4.15777
                      -1.25640                      67.78195                      -4.21612
                      -1.29346                      69.14907                      -4.35475
        </DataArray>
        <DataArray type="Float32" Name="OrientationX" NumberOfComponents="3" format="ascii">
                       0.88503                      -0.07488                      -0.45947
                       0.88505                      -0.07589                      -0.45926
                       0.88636                      -0.07910                      -0.45618
                       0.88992                      -0.08207                      -0.44867
                       0.89531                      -0.08181                      -0.43787
                       0.90196                      -0.07861                      -0.42461
                       0.90932                      -0.07282                      -0.40968
                       0.91680                      -0.06569                      -0.39391
                       0.92386                      -0.06128                      -0.37780
                       0.93017                      -0.05985                      -0.36221
                       0.93554                      -0.05772                      -0.34847
                       0.93997                      -0.05334                      -0.33706
                       0.94383                      -0.04763                      -0.32699
                       0.94752                      -0.04261                      -0.31684
                       0.95096                      -0.03804                      -0.30697
                       0.95412                      -0.03322                      -0.29758
                       0.95697                      -0.02808                      -0.28882
                       0.95947                      -0.02311                      -0.28086
                       0.96164                      -0.01939                      -0.27362
                       0.96353                      -0.01715                      -0.26705
                       0.96522                      -0.01606                      -0.26094
                       0.96676                      -0.01496                      -0.25525
                       0.96816                      -0.01252                      -0.25003
                       0.96942                      -0.00885                      -0.24525
                       0.97055                      -0.00397                      -0.24085
                       0.97158                       0.00164                      -0.23673
                       0.97253                       0.00563                      -0.23270
                       0.97343                       0.00762                      -0.22884
                       0.97426                       0.00924                      -0.22524
                       0.97499                       0.01172                      -0.22195
                       0.97563                       0.01567                      -0.21888
                       0.97618                       0.02098                      -0.21593
                       0.97666                       0.02754                      -0.21302
                       0.97708                       0.03507                      -0.20994
                       0.97756                       0.04200                      -0.20644
                       0.97820                       0.04744                      -0.20217
                       0.97896                       0.05281                      -0.19711
                       0.97964                       0.05856                      -0.19201
                       0.98018                       0.06465                      -0.18724
                       0.98050                       0.07113                      -0.18320
                       0.98057                       0.07758                      -0.18016
                       0.98024                       0.08368                      -0.17923
                       0.97975                       0.08893                      -0.17938
                       0.97922                       0.09336                      -0.18004
                       0.97860                       0.09748                      -0.18122
                       0.97790                       0.10121                      -0.18293
                       0.97714                       0.10433                      -0.18524
                       0.97625                       0.10702                      -0.18839
                       0.97533                       0.10855                      -0.19223
                       0.97417                       0.11048                      -0.19692
        </DataArray>
        <DataArray type="Float32" Name="OrientationY" NumberOfComponents="3" format="ascii">
                       0.46444                       0.07439                       0.88248
                       0.46432                       0.07408                       0.88256
                       0.46154                       0.07314                       0.88410
                       0.45432                       0.07238                       0.88789
                       0.44353                       0.07259                       0.89331
                       0.43001                       0.07356                       0.89982
                       0.41460                       0.07504                       0.90690
                       0.39823                       0.07661                       0.91408
                       0.38177                       0.07740                       0.92101
                       0.36610                       0.07752                       0.92734
                       0.35220                       0.07763                       0.93270
                       0.34043                       0.07791                       0.93704
                       0.32988                       0.07824                       0.94078
                       0.31932                       0.07839                       0.94440
                       0.30908                       0.07842                       0.94780
                       0.29931                       0.07840                       0.95093
                       0.29015                       0.07835                       0.95377
                       0.28181                       0.07822                       0.95628
                       0.27429                       0.07796                       0.95848
                       0.26756                       0.07758                       0.96041
                       0.26139                       0.07714                       0.96215
                       0.25563                       0.07671                       0.96373
                       0.25024                       0.07636                       0.96517
                       0.24520                       0.07605                       0.96648
                       0.24045                       0.07578                       0.96770
                       0.23593                       0.07550                       0.96883
                       0.23163                       0.07516                       0.96990
                       0.22765                       0.07477                       0.97087
                       0.22396                       0.07439                       0.97176
                       0.22051                       0.07402                       0.97257
                       0.21718                       0.07367                       0.97335
                       0.21390                       0.07331                       0.97410
                       0.21057                       0.07293                       0.97485
                       0.20703                       0.07252                       0.97564
                       0.20312                       0.07207                       0.97650
                       0.19855                       0.07157                       0.97747
                       0.19320                       0.07103                       0.97859
                       0.18781                       0.07045                       0.97968
                       0.18273                       0.06988                       0.98068
                       0.17836                       0.06931                       0.98152
                       0.17501                       0.06880                       0.98216
                       0.17378                       0.06847                       0.98240
                       0.17368                       0.06826                       0.98243
                       0.17412                       0.06815                       0.98236
                       0.17510                       0.06811                       0.98219
                       0.17663                       0.06816                       0.98191
                       0.17877                       0.06833                       0.98151
                       0.18177                       0.06864                       0.98094
                       0.18550                       0.06911                       0.98021
                       0.19005                       0.06970                       0.97930
        </DataArray>
        <DataArray type="Float32" Name="OrientationZ" NumberOfComponents="3" format="ascii">
                      -0.03190                      -0.99441                       0.10062
                      -0.03295                      -0.99436                       0.10080
                      -0.03657                      -0.99418                       0.10133
                      -0.04039                      -0.99400                       0.10169
                      -0.04130                      -0.99400                       0.10127
                      -0.03950                      -0.99419                       0.10015
                      -0.03530                      -0.99452                       0.09843
                      -0.02987                      -0.99489                       0.09639
                      -0.02720                      -0.99512                       0.09490
                      -0.02743                      -0.99519                       0.09402
                      -0.02679                      -0.99531                       0.09295
                      -0.02372                      -0.99553                       0.09139
                      -0.01923                      -0.99580                       0.08955
                      -0.01540                      -0.99601                       0.08788
                      -0.01199                      -0.99619                       0.08633
                      -0.00826                      -0.99637                       0.08475
                      -0.00415                      -0.99653                       0.08313