<?xml version="1.0"?>
<VTKFile type="PolyData" version="0.1" byte_order="LittleEndian">
  <PolyData>
    <Piece NumberOfPoints="      3" NumberOfVerts="  0" NumberOfLines="      2"
           NumberOfStrips="  0" NumberOfPolys="      0">
      <Points>
        <DataArray type="Float32" NumberOfComponents="3" format="ascii">
                      27.31585                      -0.79137                     147.96661
                      27.31623                      -0.79142                     147.97160
                      27.31547                      -0.79132                     147.96162
        </DataArray>
      </Points>
      <PointData>
        <DataArray type="Float32" Name="TranslationalVelocity" NumberOfComponents="3" format="ascii">
                      -0.15673                       0.04468                      -0.02221
                      -0.15673                       0.04468                      -0.02221
                      -0.15674                       0.04468                      -0.02221
        </DataArray>
        <DataArray type="Float32" Name="RotationalVelocity" NumberOfComponents="3" format="ascii">
                      -0.00026                       0.00030                       0.00038
                      -0.00026                       0.00030                       0.00038
                      -0.00026                       0.00030                       0.00038
        </DataArray>
        <DataArray type="Float32" Name="TranslationalAcceleration" NumberOfComponents="3" format="ascii">
                       0.01028                       0.02338                      -0.01633
                       0.01028                       0.02338                      -0.01633
                       0.01028                       0.02338                      -0.01633
        </DataArray>
        <DataArray type="Float32" Name="RotationalAcceleration" NumberOfComponents="3" format="ascii">
                      -0.00003                      -0.00022                       0.00056
                      -0.00003                      -0.00022                       0.00056
                      -0.00003                      -0.00022                       0.00056
        </DataArray>
        <DataArray type="Float32" Name="OrientationX" NumberOfComponents="3" format="ascii">
                       0.99710                       0.00324                      -0.07609
                       0.99710                       0.00324                      -0.07609
                       0.99710                       0.00324                      -0.07609
        </DataArray>
        <DataArray type="Float32" Name="OrientationY" NumberOfComponents="3" format="ascii">
                      -0.00248                       0.99995                       0.01005
                      -0.00248                       0.99995                       0.01005
                      -0.00248                       0.99995                       0.01005
        </DataArray>
        <DataArray type="Float32" Name="OrientationZ" NumberOfComponents="3" format="ascii">
                       0.07612                      -0.00983                       0.99705
                       0.07612                      -0.00983                       0.99705
                       0.07612                      -0.00983                       0.99705
        </DataArray>
      </PointData>
      <Lines>
        <DataArray type="Int32" Name="connectivity" format="ascii">
      0      1
      2      0
        </DataArray>
        <DataArray type="Int32" Name="offsets" format="ascii">
      2
      4
        </DataArray>
      </Lines>
    </Piece>
  </PolyData>
</VTKFile>
