<?xml version="1.0"?>
<VTKFile type="PolyData" version="0.1" byte_order="LittleEndian">
  <PolyData>
    <Piece NumberOfPoints="      3" NumberOfVerts="  0" NumberOfLines="      2"
           NumberOfStrips="  0" NumberOfPolys="      0">
      <Points>
        <DataArray type="Float32" NumberOfComponents="3" format="ascii">
                      32.96396                      -0.04994                     147.91668
                      32.96435                      -0.04996                     147.92166
                      32.96358                      -0.04991                     147.91169
        </DataArray>
      </Points>
      <PointData>
        <DataArray type="Float32" Name="TranslationalVelocity" NumberOfComponents="3" format="ascii">
                      -0.32521                       0.08936                      -0.03847
                      -0.32520                       0.08937                      -0.03847
                      -0.32521                       0.08936                      -0.03847
        </DataArray>
        <DataArray type="Float32" Name="RotationalVelocity" NumberOfComponents="3" format="ascii">
                      -0.00061                       0.00034                      -0.00018
                      -0.00061                       0.00034                      -0.00018
                      -0.00061                       0.00034                      -0.00018
        </DataArray>
        <DataArray type="Float32" Name="TranslationalAcceleration" NumberOfComponents="3" format="ascii">
                      -0.00358                      -0.01477                      -0.01792
                      -0.00358                      -0.01477                      -0.01792
                      -0.00358                      -0.01477                      -0.01792
        </DataArray>
        <DataArray type="Float32" Name="RotationalAcceleration" NumberOfComponents="3" format="ascii">
                       0.00024                       0.00048                       0.00066
                       0.00024                       0.00048                       0.00066
                       0.00024                       0.00048                       0.00066
        </DataArray>
        <DataArray type="Float32" Name="OrientationX" NumberOfComponents="3" format="ascii">
                       0.99705                       0.00312                      -0.07676
                       0.99705                       0.00312                      -0.07676
                       0.99705                       0.00312                      -0.07676
        </DataArray>
        <DataArray type="Float32" Name="OrientationY" NumberOfComponents="3" format="ascii">
                      -0.00276                       0.99998                       0.00485
                      -0.00276                       0.99998                       0.00485
                      -0.00276                       0.99998                       0.00485
        </DataArray>
        <DataArray type="Float32" Name="OrientationZ" NumberOfComponents="3" format="ascii">
                       0.07677                      -0.00462                       0.99704
                       0.07677                      -0.00462                       0.99704
                       0.07677                      -0.00462                       0.99704
        </DataArray>
      </PointData>
      <Lines>
        <DataArray type="Int32" Name="connectivity" format="ascii">
      0      1
      2      0
        </DataArray>
        <DataArray type="Int32" Name="offsets" format="ascii">
      2
      4
        </DataArray>
      </Lines>
    </Piece>
  </PolyData>
</VTKFile>
