<?xml version="1.0"?>
<VTKFile type="PolyData" version="0.1" byte_order="LittleEndian">
  <PolyData>
    <Piece NumberOfPoints="     50" NumberOfVerts="  0" NumberOfLines="     49"
           NumberOfStrips="  0" NumberOfPolys="      0">
      <Points>
        <DataArray type="Float32" NumberOfComponents="3" format="ascii">
                      19.53119                      -2.06480                     153.53746
                      19.78443                      -3.19753                     155.62575
                      20.02991                      -4.36130                     157.69679
                      20.25633                      -5.58637                     159.73408
                      20.47311                      -6.85317                     161.74795
                      20.68912                      -8.14312                     163.74822
                      20.91278                      -9.43556                     165.74594
                      21.15253                     -10.70139                     167.75716
                      21.41019                     -11.92812                     169.78896
                      21.66712                     -13.16208                     171.81633
                      21.92374                     -14.39697                     173.84296
                      22.18580                     -15.61988                     175.87584
                      22.46234                     -16.81466                     177.92338
                      22.75157                     -17.99360                     179.97855
                      23.04855                     -19.17799                     182.02934
                      23.35399                     -20.36815                     184.07544
                      23.66880                     -21.56242                     186.11765
                      23.99407                     -22.76076                     188.15577
                      24.32845                     -23.96132                     190.19109
                      24.66811                     -25.16312                     192.22485
                      25.01045                     -26.36585                     194.25778
                      25.35301                     -27.56994                     196.29025
                      25.69853                     -28.77638                     198.32131
                      26.05072                     -29.98587                     200.34997
                      26.41200                     -31.19815                     202.37600
                      26.78579                     -32.41331                     204.39864
                      27.17216                     -33.63146                     206.41782
                      27.56389                     -34.85288                     208.43511
                      27.95951                     -36.07646                     210.45178
                      28.35933                     -37.30281                     212.46768
                      28.76749                     -38.53171                     214.48215
                      29.18708                     -39.76296                     216.49467
                      29.62185                     -40.99593                     218.50469
                      30.07424                     -42.23021                     220.51174
                      30.54664                     -43.46547                     222.51524
                      31.03413                     -44.70165                     224.51664
                      31.53497                     -45.93874                     226.51654
                      32.05079                     -47.17614                     228.51477
                      32.58218                     -48.41346                     230.51131
                      33.13058                     -49.65014                     232.50585
                      33.69681                     -50.88658                     234.49759
                      34.28032                     -52.12291                     236.48633
                      34.88080                     -53.35911                     238.47179
                      35.49514                     -54.59479                     240.45500
                      36.12286                     -55.82950                     242.43591
                      36.76298                     -57.06290                     244.41452
                      37.41442                     -58.29494                     246.39053
                      38.07505                     -59.52580                     248.36383
                      38.74441                     -60.75470                     250.33401
                      39.42986                     -61.86041                     252.37461
        </DataArray>
      </Points>
      <PointData>
        <DataArray type="Float32" Name="TranslationalVelocity" NumberOfComponents="3" format="ascii">
                      -0.00450                      -2.42271                      -1.40212
                      -0.13724                      -3.92133                      -2.19890
                      -0.27399                      -5.40698                      -3.01751
                      -0.41870                      -6.86680                      -3.87924
                      -0.56885                      -8.30931                      -4.77047
                      -0.72203                      -9.74260                      -5.67826
                      -0.87559                     -11.17557                      -6.58820
                      -1.02574                     -12.62061                      -7.47989
                      -1.17083                     -14.08301                      -8.34456
                      -1.31684                     -15.54281                      -9.21471
                      -1.46292                     -17.00271                     -10.08593
                      -1.60737                     -18.46834                     -10.94915
                      -1.74809                     -19.94679                     -11.79303
                      -1.88665                     -21.43287                     -12.62617
                      -2.02578                     -22.91749                     -13.46358
                      -2.16551                     -24.40048                     -14.30548
                      -2.30563                     -25.88252                     -15.15070
                      -2.44610                     -27.36358                     -15.99920
                      -2.58670                     -28.84436                     -16.84967
                      -2.72728                     -30.32525                     -17.70138
                      -2.86780                     -31.80641                     -18.55410
                      -3.00833                     -33.28779                     -19.40810
                      -3.14900                     -34.76905                     -20.26410
                      -3.28992                     -36.24995                     -21.12261
                      -3.43106                     -37.73062                     -21.98345
                      -3.57248                     -39.21096                     -22.84672
                      -3.71419                     -40.69094                     -23.71249
                      -3.85625                     -42.17077                     -24.58092
                      -3.99853                     -43.65116                     -25.45124
                      -4.14114                     -45.13208                     -26.32388
                      -4.28408                     -46.61359                     -27.19873
                      -4.42736                     -48.09574                     -28.07566
                      -4.57093                     -49.57865                     -28.95428
                      -4.71478                     -51.06231                     -29.83433
                      -4.85889                     -52.54664                     -30.71559
                      -5.00328                     -54.03207                     -31.59801
                      -5.14797                     -55.51884                     -32.48158
                      -5.29291                     -57.00706                     -33.36589
                      -5.43808                     -58.49681                     -34.25067
                      -5.58343                     -59.98806                     -35.13554
                      -5.72904                     -61.48035                     -36.02078
                      -5.87494                     -62.97346                     -36.90646
                      -6.02114                     -64.46714                     -37.79256
                      -6.16761                     -65.96168                     -38.67874
                      -6.31429                     -67.45694                     -39.56464
                      -6.46115                     -68.95271                     -40.44997
                      -6.60816                     -70.44856                     -41.33459
                      -6.75534                     -71.94400                     -42.21856
                      -6.90257                     -73.43853                     -43.10120
                      -7.03397                     -74.98546                     -43.89580
        </DataArray>
        <DataArray type="Float32" Name="RotationalVelocity" NumberOfComponents="3" format="ascii">
                       0.70228                       0.00501                      -0.12643
                       0.70233                       0.00501                      -0.12643
                       0.70243                       0.00501                      -0.12644
                       0.70258                       0.00500                      -0.12646
                       0.70278                       0.00500                      -0.12649
                       0.70302                       0.00499                      -0.12651
                       0.70329                       0.00500                      -0.12654
                       0.70358                       0.00501                      -0.12656
                       0.70388                       0.00503                      -0.12658
                       0.70420                       0.00505                      -0.12660
                       0.70452                       0.00509                      -0.12661
                       0.70484                       0.00514                      -0.12661
                       0.70515                       0.00519                      -0.12662
                       0.70546                       0.00525                      -0.12661
                       0.70577                       0.00532                      -0.12660
                       0.70607                       0.00539                      -0.12659
                       0.70635                       0.00546                      -0.12658
                       0.70663                       0.00554                      -0.12656
                       0.70690                       0.00561                      -0.12655
                       0.70716                       0.00569                      -0.12653
                       0.70741                       0.00577                      -0.12651
                       0.70766                       0.00584                      -0.12649
                       0.70790                       0.00591                      -0.12648
                       0.70814                       0.00597                      -0.12647
                       0.70838                       0.00603                      -0.12646
                       0.70861                       0.00608                      -0.12645
                       0.70885                       0.00612                      -0.12645
                       0.70910                       0.00615                      -0.12646
                       0.70935                       0.00618                      -0.12647
                       0.70961                       0.00620                      -0.12648
                       0.70987                       0.00620                      -0.12651
                       0.71015                       0.00620                      -0.12654
                       0.71043                       0.00618                      -0.12657
                       0.71073                       0.00616                      -0.12662
                       0.71103                       0.00613                      -0.12667
                       0.71135                       0.00608                      -0.12673
                       0.71167                       0.00603                      -0.12679
                       0.71200                       0.00597                      -0.12686
                       0.71233                       0.00590                      -0.12693
                       0.71267                       0.00583                      -0.12701
                       0.71300                       0.00575                      -0.12709
                       0.71332                       0.00566                      -0.12717
                       0.71363                       0.00556                      -0.12726
                       0.71392                       0.00547                      -0.12734
                       0.71418                       0.00537                      -0.12743
                       0.71440                       0.00527                      -0.12751
                       0.71457                       0.00517                      -0.12759
                       0.71469                       0.00507                      -0.12765
                       0.71473                       0.00497                      -0.12771
                       0.71471                       0.00489                      -0.12776
        </DataArray>
        <DataArray type="Float32" Name="TranslationalAcceleration" NumberOfComponents="3" format="ascii">
                      -0.30654                       0.99355                      -1.72377
                      -0.49882                       1.56905                      -2.77618
                      -0.68959                       2.16052                      -3.81955
                      -0.87734                       2.78351                      -4.84487
                      -1.06309                       3.42826                      -5.85816
                      -1.24783                       4.08545                      -6.86512
                      -1.43264                       4.74469                      -7.87204
                      -1.61902                       5.39119                      -8.88768
                      -1.80761                       6.01860                      -9.91580
                      -1.99607                       6.65055                     -10.94234
                      -2.18474                       7.28383                     -11.96919
                      -2.37430                       7.91185                     -13.00035
                      -2.56562                       8.52634                     -14.04085
                      -2.75809                       9.13356                     -15.08703
                      -2.95063                       9.74439                     -16.13244
                      -3.14325                      10.35899                     -17.17694
                      -3.33602                      10.97648                     -18.22099
                      -3.52896                      11.59683                     -19.26456
                      -3.72215                      12.21907                     -20.30815
                      -3.91563                      12.84265                     -21.35201
                      -4.10945                      13.46738                     -22.39625
                      -4.30358                      14.09346                     -23.44082
                      -4.49800                      14.72142                     -24.48549
                      -4.69267                      15.35162                     -25.53005
                      -4.88763                      15.98393                     -26.57462
                      -5.08285                      16.61842                     -27.61909
                      -5.27834                      17.25515                     -28.66345
                      -5.47413                      17.89427                     -29.70785
                      -5.67030                      18.53522                     -30.75282
                      -5.86685                      19.17835                     -31.79833
                      -6.06381                      19.82357                     -32.84443
                      -6.26116                      20.47085                     -33.89116
                      -6.45893                      21.11988                     -34.93861
                      -6.65711                      21.77052                     -35.98678
                      -6.85569                      22.42263                     -37.03562
                      -7.05473                      23.07619                     -38.08547
                      -7.25425                      23.73121                     -39.13649
                      -7.45427                      24.38743                     -40.18879
                      -7.65480                      25.04465                     -41.24242
                      -7.85582                      25.70259                     -42.29739
                      -8.05727                      26.36145                     -43.35335
                      -8.25912                      27.02129                     -44.41014
                      -8.46131                      27.68204                     -45.46759
                      -8.66388                      28.34345                     -46.52589
                      -8.86677                      29.00519                     -47.58493
                      -9.06995                      29.66696                     -48.64454
                      -9.27332                      30.32859                     -49.70435
                      -9.47678                      30.99000                     -50.76399
                      -9.68024                      31.65054                     -51.82302
                      -9.89012                      32.24645                     -52.92018
        </DataArray>
        <DataArray type="Float32" Name="OrientationX" NumberOfComponents="3" format="ascii">
                       0.93049                      -0.25653                      -0.26149
                       0.93064                      -0.25695                      -0.26054
                       0.93207                      -0.25614                      -0.25618
                       0.93521                      -0.25126                      -0.24951
                       0.93931                      -0.24159                      -0.24358
                       0.94396                      -0.22802                      -0.23862
                       0.94876                      -0.21152                      -0.23478
                       0.95338                      -0.19354                      -0.23153
                       0.95795                      -0.17694                      -0.22588
                       0.96229                      -0.16260                      -0.21810
                       0.96579                      -0.14949                      -0.21192
                       0.96828                      -0.13710                      -0.20890
                       0.97016                      -0.12511                      -0.20769
                       0.97197                      -0.11349                      -0.20589
                       0.97363                      -0.10239                      -0.20388
                       0.97502                      -0.09158                      -0.20235
                       0.97613                      -0.08113                      -0.20144
                       0.97701                      -0.07147                      -0.20085
                       0.97782                      -0.06316                      -0.19968
                       0.97864                      -0.05629                      -0.19770
                       0.97949                      -0.05047                      -0.19508
                       0.98022                      -0.04499                      -0.19272
                       0.98067                      -0.03914                      -0.19171
                       0.98085                      -0.03295                      -0.19197
                       0.98076                      -0.02637                      -0.19343
                       0.98048                      -0.01960                      -0.19565
                       0.98038                      -0.01385                      -0.19663
                       0.98053                      -0.00938                      -0.19612
                       0.98069                      -0.00532                      -0.19549
                       0.98065                      -0.00102                      -0.19574
                       0.98033                       0.00393                      -0.19731
                       0.97973                       0.00957                      -0.20008
                       0.97887                       0.01590                      -0.20387
                       0.97778                       0.02292                      -0.20837
                       0.97678                       0.02995                      -0.21215
                       0.97607                       0.03678                      -0.21430
                       0.97540                       0.04424                      -0.21595
                       0.97459                       0.05193                      -0.21790
                       0.97361                       0.05953                      -0.22032
                       0.97242                       0.06674                      -0.22347
                       0.97111                       0.07309                      -0.22718
                       0.96967                       0.07748                      -0.23183
                       0.96831                       0.08050                      -0.23642
                       0.96709                       0.08262                      -0.24065
                       0.96589                       0.08412                      -0.24492
                       0.96473                       0.08496                      -0.24916
                       0.96366                       0.08495                      -0.25326
                       0.96263                       0.08398                      -0.25747
                       0.96184                       0.08177                      -0.26112
                       0.96084                       0.07905                      -0.26557
        </DataArray>
        <DataArray type="Float32" Name="OrientationY" NumberOfComponents="3" format="ascii">
                       0.35140                       0.82672                       0.43939
                       0.35131                       0.82660                       0.43967
                       0.34855                       0.82683                       0.44144
                       0.34114                       0.82821                       0.44462
                       0.32991                       0.83085                       0.44816
                       0.31576                       0.83434                       0.45185
                       0.29962                       0.83826                       0.45557
                       0.28251                       0.84214                       0.45933
                       0.26545                       0.84538                       0.46355
                       0.24932                       0.84788                       0.46791
                       0.23503                       0.84991                       0.47160
                       0.22293                       0.85160                       0.47443
                       0.21209                       0.85304                       0.47680
                       0.20127                       0.85429                       0.47925
                       0.19081                       0.85534                       0.48165
                       0.18085                       0.85623                       0.48390
                       0.17152                       0.85697                       0.48599
                       0.16304                       0.85754                       0.48790
                       0.15542                       0.85793                       0.48970
                       0.14863                       0.85817                       0.49139
                       0.14241                       0.85831                       0.49298
                       0.13661                       0.85840                       0.49445
                       0.13118                       0.85849                       0.49577
                       0.12610                       0.85857                       0.49695
                       0.12131                       0.85863                       0.49804
                       0.11675                       0.85867                       0.49906
                       0.11243                       0.85865                       0.50008
                       0.10843                       0.85859                       0.50107
                       0.10473                       0.85851                       0.50198
                       0.10126                       0.85844                       0.50282
                       0.09792                       0.85836                       0.50362
                       0.09462                       0.85827                       0.50440
                       0.09128                       0.85817                       0.50519
                       0.08772                       0.85804                       0.50604
                       0.08381                       0.85788                       0.50697
                       0.07923                       0.85768                       0.50805
                       0.07387                       0.85742                       0.50929
                       0.06848                       0.85712                       0.51055
                       0.06341                       0.85680                       0.51173
                       0.05905                       0.85649                       0.51277
                       0.05570                       0.85623                       0.51359
                       0.05446                       0.85611                       0.51392
                       0.05432                       0.85609                       0.51396
                       0.05472                       0.85614                       0.51384
                       0.05565                       0.85623                       0.51358
                       0.05712                       0.85638                       0.51317
                       0.05920                       0.85659                       0.51259
                       0.06213                       0.85688                       0.51177
                       0.06577                       0.85723                       0.51071
                       0.07024                       0.85764                       0.50942
        </DataArray>
        <DataArray type="Float32" Name="OrientationZ" NumberOfComponents="3" format="ascii">
                       0.10346                      -0.50074                       0.85940
                       0.10239                      -0.50071                       0.85954
                       0.09875                      -0.50075                       0.85994
                       0.09493                      -0.50093                       0.86027
                       0.09411                      -0.50132                       0.86013
                       0.09605                      -0.50188                       0.85959
                       0.10044                      -0.50257                       0.85868
                       0.10608                      -0.50332                       0.85756
                       0.10893                      -0.50401                       0.85680
                       0.10884                      -0.50464                       0.85644
                       0.10962                      -0.50527                       0.85597
                       0.11285                      -0.50595                       0.85515
                       0.11752                      -0.50662                       0.85412
                       0.12150                      -0.50726                       0.85319
                       0.12507                      -0.50785                       0.85232
                       0.12894                      -0.50841                       0.85140
                       0.13320                      -0.50894                       0.85043