<?xml version="1.0"?>
<VTKFile type="PolyData" version="0.1" byte_order="LittleEndian">
  <PolyData>
    <Piece NumberOfPoints="      3" NumberOfVerts="  0" NumberOfLines="      2"
           NumberOfStrips="  0" NumberOfPolys="      0">
      <Points>
        <DataArray type="Float32" NumberOfComponents="3" format="ascii">
                      35.72023                      -0.88728                     147.56825
                      35.72059                      -0.88733                     147.57323
                      35.71986                      -0.88723                     147.56326
        </DataArray>
      </Points>
      <PointData>
        <DataArray type="Float32" Name="TranslationalVelocity" NumberOfComponents="3" format="ascii">
                      -0.20138                      -0.01142                       0.03456
                      -0.20138                      -0.01142                       0.03456
                      -0.20139                      -0.01142                       0.03456
        </DataArray>
        <DataArray type="Float32" Name="RotationalVelocity" NumberOfComponents="3" format="ascii">
                       0.00015                       0.00070                       0.00000
                       0.00015                       0.00070                       0.00000
                       0.00015                       0.00070                       0.00000
        </DataArray>
        <DataArray type="Float32" Name="TranslationalAcceleration" NumberOfComponents="3" format="ascii">
                      -0.00539                       0.02783                       0.01713
                      -0.00539                       0.02783                       0.01713
                      -0.00539                       0.02782                       0.01713
        </DataArray>
        <DataArray type="Float32" Name="RotationalAcceleration" NumberOfComponents="3" format="ascii">
                      -0.00004                      -0.00007                       0.00069
                      -0.00004                      -0.00007                       0.00069
                      -0.00004                      -0.00007                       0.00069
        </DataArray>
        <DataArray type="Float32" Name="OrientationX" NumberOfComponents="3" format="ascii">
                       0.99734                       0.00421                      -0.07272
                       0.99734                       0.00421                      -0.07272
                       0.99734                       0.00421                      -0.07272
        </DataArray>
        <DataArray type="Float32" Name="OrientationY" NumberOfComponents="3" format="ascii">
                      -0.00349                       0.99994                       0.01009
                      -0.00349                       0.99994                       0.01009
                      -0.00349                       0.99994                       0.01009
        </DataArray>
        <DataArray type="Float32" Name="OrientationZ" NumberOfComponents="3" format="ascii">
                       0.07276                      -0.00981                       0.99730
                       0.07276                      -0.00981                       0.99730
                       0.07276                      -0.00981                       0.99730
        </DataArray>
      </PointData>
      <Lines>
        <DataArray type="Int32" Name="connectivity" format="ascii">
      0      1
      2      0
        </DataArray>
        <DataArray type="Int32" Name="offsets" format="ascii">
      2
      4
        </DataArray>
      </Lines>
    </Piece>
  </PolyData>
</VTKFile>
