<?xml version="1.0"?>
<VTKFile type="PolyData" version="0.1" byte_order="LittleEndian">
  <PolyData>
    <Piece NumberOfPoints="      3" NumberOfVerts="  0" NumberOfLines="      2"
           NumberOfStrips="  0" NumberOfPolys="      0">
      <Points>
        <DataArray type="Float32" NumberOfComponents="3" format="ascii">
                      31.15756                      -0.49514                     147.63501
                      31.15794                      -0.49517                     147.64000
                      31.15718                      -0.49511                     147.63003
        </DataArray>
      </Points>
      <PointData>
        <DataArray type="Float32" Name="TranslationalVelocity" NumberOfComponents="3" format="ascii">
                      -0.19822                       0.09439                      -0.02774
                      -0.19822                       0.09440                      -0.02774
                      -0.19822                       0.09439                      -0.02774
        </DataArray>
        <DataArray type="Float32" Name="RotationalVelocity" NumberOfComponents="3" format="ascii">
                      -0.00054                      -0.00012                       0.00038
                      -0.00054                      -0.00012                       0.00038
                      -0.00054                      -0.00012                       0.00038
        </DataArray>
        <DataArray type="Float32" Name="TranslationalAcceleration" NumberOfComponents="3" format="ascii">
                      -0.00636                      -0.00268                       0.01543
                      -0.00636                      -0.00268                       0.01543
                      -0.00636                      -0.00268                       0.01543
        </DataArray>
        <DataArray type="Float32" Name="RotationalAcceleration" NumberOfComponents="3" format="ascii">
                      -0.00007                      -0.00068                      -0.00053
                      -0.00007                      -0.00068                      -0.00053
                      -0.00007                      -0.00068                      -0.00053
        </DataArray>
        <DataArray type="Float32" Name="OrientationX" NumberOfComponents="3" format="ascii">
                       0.99714                       0.00455                      -0.07541
                       0.99714                       0.00455                      -0.07541
                       0.99714                       0.00455                      -0.07541
        </DataArray>
        <DataArray type="Float32" Name="OrientationY" NumberOfComponents="3" format="ascii">
                      -0.00405                       0.99997                       0.00678
                      -0.00405                       0.99997                       0.00678
                      -0.00405                       0.99997                       0.00678
        </DataArray>
        <DataArray type="Float32" Name="OrientationZ" NumberOfComponents="3" format="ascii">
                       0.07544                      -0.00646                       0.99713
                       0.07544                      -0.00646                       0.99713
                       0.07544                      -0.00646                       0.99713
        </DataArray>
      </PointData>
      <Lines>
        <DataArray type="Int32" Name="connectivity" format="ascii">
      0      1
      2      0
        </DataArray>
        <DataArray type="Int32" Name="offsets" format="ascii">
      2
      4
        </DataArray>
      </Lines>
    </Piece>
  </PolyData>
</VTKFile>
