<?xml version="1.0"?>
<VTKFile type="PolyData" version="0.1" byte_order="LittleEndian">
  <PolyData>
    <Piece NumberOfPoints="      3" NumberOfVerts="  0" NumberOfLines="      2"
           NumberOfStrips="  0" NumberOfPolys="      0">
      <Points>
        <DataArray type="Float32" NumberOfComponents="3" format="ascii">
                      33.52548                      -0.22721                     147.95515
                      33.52586                      -0.22724                     147.96014
                      33.52510                      -0.22718                     147.95017
        </DataArray>
      </Points>
      <PointData>
        <DataArray type="Float32" Name="TranslationalVelocity" NumberOfComponents="3" format="ascii">
                      -0.30834                       0.11113                      -0.00659
                      -0.30834                       0.11113                      -0.00659
                      -0.30834                       0.11112                      -0.00659
        </DataArray>
        <DataArray type="Float32" Name="RotationalVelocity" NumberOfComponents="3" format="ascii">
                      -0.00063                       0.00033                       0.00031
                      -0.00063                       0.00033                       0.00031
                      -0.00063                       0.00033                       0.00031
        </DataArray>
        <DataArray type="Float32" Name="TranslationalAcceleration" NumberOfComponents="3" format="ascii">
                      -0.01938                      -0.00839                      -0.01604
                      -0.01939                      -0.00839                      -0.01604
                      -0.01938                      -0.00839                      -0.01604
        </DataArray>
        <DataArray type="Float32" Name="RotationalAcceleration" NumberOfComponents="3" format="ascii">
                       0.00004                      -0.00079                      -0.00018
                       0.00004                      -0.00079                      -0.00018
                       0.00004                      -0.00079                      -0.00018
        </DataArray>
        <DataArray type="Float32" Name="OrientationX" NumberOfComponents="3" format="ascii">
                       0.99705                       0.00338                      -0.07662
                       0.99705                       0.00338                      -0.07662
                       0.99705                       0.00338                      -0.07662
        </DataArray>
        <DataArray type="Float32" Name="OrientationY" NumberOfComponents="3" format="ascii">
                      -0.00293                       0.99998                       0.00601
                      -0.00293                       0.99998                       0.00601
                      -0.00293                       0.99998                       0.00601
        </DataArray>
        <DataArray type="Float32" Name="OrientationZ" NumberOfComponents="3" format="ascii">
                       0.07663                      -0.00577                       0.99704
                       0.07663                      -0.00577                       0.99704
                       0.07663                      -0.00577                       0.99704
        </DataArray>
      </PointData>
      <Lines>
        <DataArray type="Int32" Name="connectivity" format="ascii">
      0      1
      2      0
        </DataArray>
        <DataArray type="Int32" Name="offsets" format="ascii">
      2
      4
        </DataArray>
      </Lines>
    </Piece>
  </PolyData>
</VTKFile>
