<?xml version="1.0"?>
<VTKFile type="PolyData" version="0.1" byte_order="LittleEndian">
  <PolyData>
    <Piece NumberOfPoints="      3" NumberOfVerts="  0" NumberOfLines="      2"
           NumberOfStrips="  0" NumberOfPolys="      0">
      <Points>
        <DataArray type="Float32" NumberOfComponents="3" format="ascii">
                      31.27249                      -0.86223                     147.89347
                      31.27277                      -0.86227                     147.89846
                      31.27222                      -0.86219                     147.88848
        </DataArray>
      </Points>
      <PointData>
        <DataArray type="Float32" Name="TranslationalVelocity" NumberOfComponents="3" format="ascii">
                       0.30890                       0.02300                      -0.06181
                       0.30890                       0.02301                      -0.06181
                       0.30891                       0.02300                      -0.06181
        </DataArray>
        <DataArray type="Float32" Name="RotationalVelocity" NumberOfComponents="3" format="ascii">
                      -0.00020                      -0.00104                      -0.00021
                      -0.00020                      -0.00104                      -0.00021
                      -0.00020                      -0.00104                      -0.00021
        </DataArray>
        <DataArray type="Float32" Name="TranslationalAcceleration" NumberOfComponents="3" format="ascii">
                       0.12161                       0.02519                      -0.00535
                       0.12162                       0.02519                      -0.00536
                       0.12160                       0.02519                      -0.00535
        </DataArray>
        <DataArray type="Float32" Name="RotationalAcceleration" NumberOfComponents="3" format="ascii">
                      -0.00014                       0.00149                       0.00020
                      -0.00014                       0.00149                       0.00020
                      -0.00014                       0.00149                       0.00020
        </DataArray>
        <DataArray type="Float32" Name="OrientationX" NumberOfComponents="3" format="ascii">
                       0.99844                       0.00739                      -0.05532
                       0.99844                       0.00739                      -0.05532
                       0.99844                       0.00739                      -0.05532
        </DataArray>
        <DataArray type="Float32" Name="OrientationY" NumberOfComponents="3" format="ascii">
                      -0.00689                       0.99993                       0.00919
                      -0.00689                       0.99993                       0.00919
                      -0.00689                       0.99993                       0.00919
        </DataArray>
        <DataArray type="Float32" Name="OrientationZ" NumberOfComponents="3" format="ascii">
                       0.05539                      -0.00880                       0.99843
                       0.05539                      -0.00880                       0.99843
                       0.05539                      -0.00880                       0.99843
        </DataArray>
      </PointData>
      <Lines>
        <DataArray type="Int32" Name="connectivity" format="ascii">
      0      1
      2      0
        </DataArray>
        <DataArray type="Int32" Name="offsets" format="ascii">
      2
      4
        </DataArray>
      </Lines>
    </Piece>
  </PolyData>
</VTKFile>
