<?xml version="1.0"?>
<VTKFile type="PolyData" version="0.1" byte_order="LittleEndian">
  <PolyData>
    <Piece NumberOfPoints="      3" NumberOfVerts="  0" NumberOfLines="      2"
           NumberOfStrips="  0" NumberOfPolys="      0">
      <Points>
        <DataArray type="Float32" NumberOfComponents="3" format="ascii">
                      26.90496                      -0.57809                     147.84481
                      26.90534                      -0.57813                     147.84980
                      26.90458                      -0.57805                     147.83983
        </DataArray>
      </Points>
      <PointData>
        <DataArray type="Float32" Name="TranslationalVelocity" NumberOfComponents="3" format="ascii">
                      -0.11900                       0.09724                      -0.05755
                      -0.11900                       0.09724                      -0.05755
                      -0.11900                       0.09723                      -0.05755
        </DataArray>
        <DataArray type="Float32" Name="RotationalVelocity" NumberOfComponents="3" format="ascii">
                      -0.00060                       0.00021                       0.00050
                      -0.00060                       0.00021                       0.00050
                      -0.00060                       0.00021                       0.00050
        </DataArray>
        <DataArray type="Float32" Name="TranslationalAcceleration" NumberOfComponents="3" format="ascii">
                       0.00935                       0.01278                      -0.00357
                       0.00935                       0.01278                      -0.00357
                       0.00936                       0.01278                      -0.00357
        </DataArray>
        <DataArray type="Float32" Name="RotationalAcceleration" NumberOfComponents="3" format="ascii">
                       0.00001                      -0.00043                       0.00042
                       0.00001                      -0.00043                       0.00042
                       0.00001                      -0.00043                       0.00042
        </DataArray>
        <DataArray type="Float32" Name="OrientationX" NumberOfComponents="3" format="ascii">
                       0.99709                       0.00376                      -0.07609
                       0.99709                       0.00376                      -0.07609
                       0.99709                       0.00376                      -0.07609
        </DataArray>
        <DataArray type="Float32" Name="OrientationY" NumberOfComponents="3" format="ascii">
                      -0.00311                       0.99996                       0.00863
                      -0.00311                       0.99996                       0.00863
                      -0.00311                       0.99996                       0.00863
        </DataArray>
        <DataArray type="Float32" Name="OrientationZ" NumberOfComponents="3" format="ascii">
                       0.07612                      -0.00837                       0.99706
                       0.07612                      -0.00837                       0.99706
                       0.07612                      -0.00837                       0.99706
        </DataArray>
      </PointData>
      <Lines>
        <DataArray type="Int32" Name="connectivity" format="ascii">
      0      1
      2      0
        </DataArray>
        <DataArray type="Int32" Name="offsets" format="ascii">
      2
      4
        </DataArray>
      </Lines>
    </Piece>
  </PolyData>
</VTKFile>
