<?xml version="1.0"?>
<VTKFile type="PolyData" version="0.1" byte_order="LittleEndian">
  <PolyData>
    <Piece NumberOfPoints="     50" NumberOfVerts="  0" NumberOfLines="     49"
           NumberOfStrips="  0" NumberOfPolys="      0">
      <Points>
        <DataArray type="Float32" NumberOfComponents="3" format="ascii">
                      24.56038                      -1.24460                     153.63231
                      24.83785                      -1.80132                     155.93909
                      25.10932                      -2.39273                     158.23699
                      25.36522                      -3.05270                     160.51768
                      25.61378                      -3.75921                     162.78628
                      25.86276                      -4.49131                     165.04766
                      26.11933                      -5.22580                     167.30734
                      26.39022                      -5.93005                     169.57355
                      26.67649                      -6.59009                     171.84999
                      26.96211                      -7.25795                     174.12412
                      27.24714                      -7.92657                     176.39793
                      27.53651                      -8.58143                     178.67491
                      27.83831                      -9.20434                     180.95915
                      28.15144                      -9.80903                     183.24695
                      28.47217                     -10.41937                     185.53208
                      28.80119                     -11.03574                     187.81430
                      29.13930                     -11.65629                     190.09400
                      29.48757                     -12.28098                     192.37098
                      29.84453                     -12.90780                     194.64601
                      30.20627                     -13.53567                     196.92003
                      30.57013                     -14.16426                     199.19367
                      30.93366                     -14.79402                     201.46735
                      31.29966                     -15.42602                     203.74044
                      31.67186                     -16.06100                     206.01219
                      32.05264                     -16.69865                     208.28230
                      32.44545                     -17.33909                     210.55011
                      32.85034                     -17.98244                     212.81557
                      33.26006                     -18.62890                     215.08026
                      33.67307                     -19.27720                     217.34508
                      34.08967                     -19.92791                     219.61007
                      34.51401                     -20.58079                     221.87457
                      34.94917                     -21.23560                     224.13805
                      35.39884                     -21.89169                     226.39985
                      35.86544                     -22.54865                     228.65946
                      36.35138                     -23.20619                     230.91627
                      36.85168                     -23.86412                     233.17163
                      37.36459                     -24.52236                     235.42613
                      37.89172                     -25.18030                     237.67945
                      38.43364                     -25.83753                     239.93152
                      38.99176                     -26.49352                     242.18190
                      39.56698                     -27.14882                     244.42996
                      40.15875                     -27.80366                     246.67551
                      40.76680                     -28.45812                     248.91831
                      41.38801                     -29.11172                     251.15922
                      42.02193                     -29.76409                     253.39806
                      42.66760                     -30.41499                     255.63473
                      43.32400                     -31.06454                     257.86892
                      43.98909                     -31.71309                     260.10053
                      44.66244                     -32.36008                     262.32892
                      45.34430                     -32.86932                     264.59399
        </DataArray>
      </Points>
      <PointData>
        <DataArray type="Float32" Name="TranslationalVelocity" NumberOfComponents="3" format="ascii">
                       0.44827                      -2.59449                      -0.68020
                       0.39910                      -4.23815                      -1.07097
                       0.34562                      -5.87506                      -1.48593
                       0.28363                      -7.49840                      -1.94871
                       0.21585                      -9.11286                      -2.44408
                       0.14489                     -10.72288                      -2.95752
                       0.07366                     -12.33331                      -3.47296
                       0.00625                     -13.95076                      -3.96764
                      -0.05558                     -15.57801                      -4.43181
                      -0.11825                     -17.20435                      -4.90171
                      -0.18084                     -18.83120                      -5.37241
                      -0.24153                     -20.46163                      -5.83378
                      -0.29801                     -22.09948                      -6.27314
                      -0.35198                     -23.74202                      -6.70006
                      -0.40639                     -25.38441                      -7.13126
                      -0.46126                     -27.02654                      -7.56699
                      -0.51635                     -28.66875                      -8.00598
                      -0.57165                     -30.31102                      -8.44820
                      -0.62691                     -31.95367                      -8.89223
                      -0.68198                     -33.59686                      -9.33728
                      -0.73681                     -35.24069                      -9.78306
                      -0.79147                     -36.88514                     -10.22989
                      -0.84609                     -38.53011                     -10.67852
                      -0.90080                     -40.17549                     -11.12953
                      -0.95558                     -41.82139                     -11.58270
                      -1.01046                     -43.46773                     -12.03816
                      -1.06548                     -45.11451                     -12.49601
                      -1.12069                     -46.76196                     -12.95631
                      -1.17593                     -48.41056                     -13.41815
                      -1.23131                     -50.06038                     -13.88196
                      -1.28683                     -51.71149                     -14.34759
                      -1.34251                     -53.36392                     -14.81494
                      -1.39831                     -55.01770                     -15.28358
                      -1.45422                     -56.67280                     -15.75327
                      -1.51023                     -58.32909                     -16.22382
                      -1.56635                     -59.98698                     -16.69507
                      -1.62259                     -61.64669                     -17.16693
                      -1.67892                     -63.30822                     -17.63900
                      -1.73530                     -64.97162                     -18.11099
                      -1.79171                     -66.63676                     -18.58255
                      -1.84825                     -68.30330                     -19.05406
                      -1.90498                     -69.97105                     -19.52568
                      -1.96192                     -71.63976                     -19.99743
                      -2.01903                     -73.30962                     -20.46892
                      -2.07628                     -74.98038                     -20.93988
                      -2.13366                     -76.65176                     -21.41006
                      -2.19119                     -78.32328                     -21.87950
                      -2.24892                     -79.99446                     -22.34838
                      -2.30676                     -81.66461                     -22.81621
                      -2.34755                     -83.36192                     -23.18602
        </DataArray>
        <DataArray type="Float32" Name="RotationalVelocity" NumberOfComponents="3" format="ascii">
                       0.69782                       0.00818                      -0.12222
                       0.69787                       0.00818                      -0.12222
                       0.69798                       0.00819                      -0.12223
                       0.69816                       0.00819                      -0.12225
                       0.69838                       0.00820                      -0.12227
                       0.69865                       0.00822                      -0.12229
                       0.69895                       0.00825                      -0.12231
                       0.69928                       0.00829                      -0.12234
                       0.69962                       0.00835                      -0.12235
                       0.69998                       0.00842                      -0.12237
                       0.70033                       0.00851                      -0.12239
                       0.70069                       0.00861                      -0.12240
                       0.70104                       0.00871                      -0.12240
                       0.70139                       0.00883                      -0.12241
                       0.70173                       0.00896                      -0.12241
                       0.70206                       0.00909                      -0.12241
                       0.70238                       0.00923                      -0.12240
                       0.70269                       0.00937                      -0.12239
                       0.70298                       0.00951                      -0.12239
                       0.70327                       0.00965                      -0.12238
                       0.70355                       0.00979                      -0.12237
                       0.70382                       0.00992                      -0.12236
                       0.70409                       0.01005                      -0.12235
                       0.70435                       0.01017                      -0.12235
                       0.70461                       0.01029                      -0.12234
                       0.70488                       0.01039                      -0.12234
                       0.70514                       0.01049                      -0.12234
                       0.70541                       0.01058                      -0.12234
                       0.70569                       0.01065                      -0.12235
                       0.70598                       0.01071                      -0.12236
                       0.70627                       0.01076                      -0.12238
                       0.70658                       0.01080                      -0.12240
                       0.70689                       0.01082                      -0.12243
                       0.70722                       0.01083                      -0.12246
                       0.70757                       0.01083                      -0.12250
                       0.70792                       0.01081                      -0.12254
                       0.70828                       0.01079                      -0.12258
                       0.70865                       0.01075                      -0.12263
                       0.70903                       0.01070                      -0.12268
                       0.70940                       0.01064                      -0.12274
                       0.70977                       0.01057                      -0.12280
                       0.71014                       0.01049                      -0.12286
                       0.71049                       0.01040                      -0.12291
                       0.71081                       0.01031                      -0.12297
                       0.71110                       0.01021                      -0.12303
                       0.71136                       0.01010                      -0.12309
                       0.71155                       0.00999                      -0.12314
                       0.71169                       0.00988                      -0.12318
                       0.71174                       0.00977                      -0.12322
                       0.71173                       0.00966                      -0.12324
        </DataArray>
        <DataArray type="Float32" Name="TranslationalAcceleration" NumberOfComponents="3" format="ascii">
                      -0.39341                       0.52793                      -1.87431
                      -0.59824                       0.80951                      -3.02012
                      -0.80252                       1.10857                      -4.16126
                      -1.00567                       1.44216                      -5.29297
                      -1.20812                       1.79939                      -6.41866
                      -1.41028                       2.16988                      -7.54155
                      -1.61259                       2.54207                      -8.66513
                      -1.81564                       2.89959                      -9.79413
                      -2.01967                       3.23540                     -10.93060
                      -2.22377                       3.57564                     -12.06693
                      -2.42806                       3.91675                     -13.20413
                      -2.63281                       4.25142                     -14.34439
                      -2.83837                       4.57044                     -15.49049
                      -3.04449                       4.88073                     -16.64045
                      -3.25076                       5.19434                     -17.79080
                      -3.45717                       5.51144                     -18.94145
                      -3.66375                       5.83111                     -20.09264
                      -3.87049                       6.15333                     -21.24430
                      -4.07742                       6.47705                     -22.39668
                      -4.28454                       6.80172                     -23.54987
                      -4.49185                       7.12713                     -24.70391
                      -4.69935                       7.45350                     -25.85880
                      -4.90704                       7.78138                     -27.01444
                      -5.11491                       8.11118                     -28.17075
                      -5.32296                       8.44276                     -29.32779
                      -5.53118                       8.77619                     -30.48551
                      -5.73956                       9.11157                     -31.64392
                      -5.94814                       9.44897                     -32.80317
                      -6.15695                       9.78773                     -33.96363
                      -6.36601                      10.12820                     -35.12537
                      -6.57533                      10.47026                     -36.28843
                      -6.78489                      10.81386                     -37.45287
                      -6.99470                      11.15870                     -38.61873
                      -7.20475                      11.50461                     -39.78600
                      -7.41501                      11.85147                     -40.95462
                      -7.62553                      12.19919                     -42.12492
                      -7.83634                      12.54772                     -43.29705
                      -8.04742                      12.89678                     -44.47105
                      -8.25878                      13.24617                     -45.64697
                      -8.47039                      13.59563                     -46.82473
                      -8.68222                      13.94544                     -48.00411
                      -8.89423                      14.29570                     -49.18494
                      -9.10639                      14.64643                     -50.36705
                      -9.31871                      14.99733                     -51.55055
                      -9.53115                      15.34815                     -52.73523
                      -9.74366                      15.69868                     -53.92082
                      -9.95617                      16.04890                     -55.10692
                     -10.16860                      16.39886                     -56.29308
                     -10.38085                      16.74814                     -57.47869
                     -10.59528                      17.02567                     -58.68439
        </DataArray>
        <DataArray type="Float32" Name="OrientationX" NumberOfComponents="3" format="ascii">
                       0.94575                      -0.26600                      -0.18656
                       0.94591                      -0.26616                      -0.18553
                       0.94723                      -0.26422                      -0.18149
                       0.95003                      -0.25768                      -0.17620
                       0.95357                      -0.24665                      -0.17281
                       0.95749                      -0.23208                      -0.17132
                       0.96143                      -0.21495                      -0.17164
                       0.96513                      -0.19656                      -0.17288
                       0.96881                      -0.17890                      -0.17144
                       0.97234                      -0.16290                      -0.16736
                       0.97513                      -0.14855                      -0.16451
                       0.97699                      -0.13574                      -0.16453
                       0.97829                      -0.12382                      -0.16619
                       0.97953                      -0.11209                      -0.16718
                       0.98065                      -0.10084                      -0.16782
                       0.98152                      -0.08999                      -0.16886
                       0.98215                      -0.07968                      -0.17039
                       0.98259                      -0.07022                      -0.17203
                       0.98302                      -0.06192                      -0.17276
                       0.98351                      -0.05480                      -0.17235
                       0.98407                      -0.04853                      -0.17104
                       0.98454                      -0.04268                      -0.16989
                       0.98473                      -0.03682                      -0.17014
                       0.98466                      -0.03096                      -0.17170
                       0.98434                      -0.02505                      -0.17452
                       0.98382                      -0.01916                      -0.17812
                       0.98352                      -0.01393                      -0.18027
                       0.98350                      -0.00954                      -0.18064
                       0.98351                      -0.00553                      -0.18078
                       0.98333                      -0.00151                      -0.18184
                       0.98286                       0.00279                      -0.18435
                       0.98211                       0.00744                      -0.18818
                       0.98108                       0.01247                      -0.19319
                       0.97982                       0.01798                      -0.19907
                       0.97863                       0.02368                      -0.20425
                       0.97772                       0.02963                      -0.20781
                       0.97680                       0.03631                      -0.21105
                       0.97574                       0.04314                      -0.21465
                       0.97453                       0.04976                      -0.21868
                       0.97314                       0.05580                      -0.22334
                       0.97168                       0.06086                      -0.22832
                       0.97021                       0.06379                      -0.23373
                       0.96888                       0.06541                      -0.23874
                       0.96772                       0.06627                      -0.24317
                       0.96660                       0.06653                      -0.24751
                       0.96555                       0.06616                      -0.25166
                       0.96463                       0.06502                      -0.25548
                       0.96378                       0.06293                      -0.25917
                       0.96321                       0.05980                      -0.26203
                       0.96247                       0.05597                      -0.26555
        </DataArray>
        <DataArray type="Float32" Name="OrientationY" NumberOfComponents="3" format="ascii">
                       0.30382                       0.92752                       0.21771
                       0.30373                       0.92748                       0.21800
                       0.30093                       0.92801                       0.21961
                       0.29341                       0.92979                       0.22226
                       0.28201                       0.93267                       0.22492
                       0.26764                       0.93627                       0.22751
                       0.25126                       0.94020                       0.22999
                       0.23391                       0.94405                       0.23249
                       0.21664                       0.94739                       0.23561
                       0.20033                       0.95012                       0.23905
                       0.18589                       0.95232                       0.24195
                       0.17367                       0.95407                       0.24411
                       0.16271                       0.95554                       0.24590
                       0.15179                       0.95685                       0.24781
                       0.14124                       0.95796                       0.24972
                       0.13119                       0.95892                       0.25153
                       0.12179                       0.95971                       0.25323
                       0.11324                       0.96034                       0.25480
                       0.10556                       0.96081                       0.25632
                       0.09872                       0.96115                       0.25777
                       0.09246                       0.96140                       0.25916
                       0.08662                       0.96160                       0.26044
                       0.08115                       0.96176                       0.26158
                       0.07603                       0.96191                       0.26259
                       0.07120                       0.96202                       0.26352
                       0.06660                       0.96211                       0.26439
                       0.06225                       0.96216                       0.26527
                       0.05821                       0.96218                       0.26613
                       0.05447                       0.96218                       0.26692
                       0.05097                       0.96217                       0.26764
                       0.04759                       0.96216                       0.26831
                       0.04425                       0.96213                       0.26896
                       0.04087                       0.96210                       0.26963
                       0.03727                       0.96204                       0.27035
                       0.03331                       0.96196                       0.27116
                       0.02869                       0.96184                       0.27211
                       0.02328                       0.96167                       0.27322
                       0.01784                       0.96147                       0.27434
                       0.01272                       0.96124                       0.27541
                       0.00831                       0.96102                       0.27634
                       0.00492                       0.96084                       0.27705
                       0.00363                       0.96078                       0.27728
                       0.00345                       0.96080                       0.27722
                       0.00380                       0.96086                       0.27701
                       0.00470                       0.96096                       0.27666
                       0.00613                       0.96109                       0.27618
                       0.00818                       0.96126                       0.27553
                       0.01109                       0.96148                       0.27466
                       0.01472                       0.96173                       0.27359
                       0.01919                       0.96202                       0.27230
        </DataArray>
        <DataArray type="Float32" Name="OrientationZ" NumberOfComponents="3" format="ascii">
                       0.11513                      -0.26258                       0.95802
                       0.11405                      -0.26256                       0.95815
                       0.11040                      -0.26264                       0.95856
                       0.10656                      -0.26286                       0.95893
                       0.10570                      -0.26322                       0.95893
                       0.10760                      -0.26369                       0.95859
                       0.11194                      -0.26424                       0.95794
                       0.11751                      -0.26483                       0.95711
                       0.12027                      -0.26540                       0.95661
                       0.12007                      -0.26596                       0.95648
                       0.12073                      -0.26651                       0.95624
                       0.12383                      -0.26706                       0.95569
                       0.12836                      -0.26760                       0.95494
                       0.13219                      -0.26811                       0.95428
                       0.13559                      -0.26859                       0.95366
                       0.13928                      -0.26904                       0.95300
                       0.14335                      -0.26946                       0.95228