<?xml version="1.0"?>
<VTKFile type="PolyData" version="0.1" byte_order="LittleEndian">
  <PolyData>
    <Piece NumberOfPoints="     50" NumberOfVerts="  0" NumberOfLines="     49"
           NumberOfStrips="  0" NumberOfPolys="      0">
      <Points>
        <DataArray type="Float32" NumberOfComponents="3" format="ascii">
                      10.10429                       1.39829                     153.41337
                      10.32128                       2.33829                     155.59911
                      10.53573                       3.24480                     157.79821
                      10.74122                       4.08501                     160.02407
                      10.94354                       4.88057                     162.26767
                      11.14810                       5.65205                     164.52046
                      11.35954                       6.42215                     166.77307
                      11.58107                       7.22258                     169.01274
                      11.81218                       8.06687                     171.23413
                      12.04195                       8.90435                     173.45817
                      12.26956                       9.74187                     175.68227
                      12.49837                      10.59359                     177.90058
                      12.73446                      11.47730                     180.10552
                      12.97805                      12.37966                     182.30226
                      13.22772                      13.27750                     184.50005
                      13.48413                      14.17044                     186.69894
                      13.74779                      15.06023                     188.89819
                      14.01970                      15.94687                     191.09764
                      14.29811                      16.83224                     193.29676
                      14.57888                      17.71732                     195.49572
                      14.85926                      18.60246                     197.69484
                      15.13674                      19.48725                     199.89476
                      15.41415                      20.37074                     202.09561
                      15.69524                      21.25225                     204.29722
                      15.98230                      22.13210                     206.49920
                      16.27876                      23.01017                     208.70111
                      16.58461                      23.88633                     210.90302
                      16.89247                      24.76057                     213.10631
                      17.20055                      25.63432                     215.31094
                      17.50911                      26.50713                     217.51728
                      17.82224                      27.37930                     219.72468
                      18.14293                      28.25103                     221.93261
                      18.47478                      29.12290                     224.14022
                      18.82015                      29.99520                     226.34691
                      19.18139                      30.86811                     228.55209
                      19.55339                      31.74205                     230.75672
                      19.93434                      32.61727                     232.96121
                      20.32576                      33.49426                     235.16503
                      20.72820                      34.37337                     237.36790
                      21.14306                      35.25494                     239.56925
                      21.57136                      36.13826                     241.76895
                      22.01266                      37.02299                     243.96708
                      22.46681                      37.90888                     246.16351
                      22.93072                      38.79647                     248.35864
                      23.40408                      39.68587                     250.55216
                      23.88614                      40.57705                     252.74387
                      24.37619                      41.46957                     254.93362
                      24.87253                      42.36275                     257.12157
                      25.37512                      43.25654                     259.30693
                      25.87027                      44.28270                     261.43940
        </DataArray>
      </Points>
      <PointData>
        <DataArray type="Float32" Name="TranslationalVelocity" NumberOfComponents="3" format="ascii">
                       1.83136                      -2.45214                       0.93729
                       1.95168                      -3.91888                       1.55613
                       2.06861                      -5.39436                       2.15296
                       2.17880                      -6.88691                       2.70620
                       2.28445                      -8.39133                       3.23013
                       2.38765                      -9.90265                       3.73830
                       2.49074                     -11.41529                       4.24568
                       2.59696                     -12.92118                       4.77326
                       2.70772                     -14.41677                       5.33003
                       2.81790                     -15.91478                       5.88259
                       2.92822                     -17.41344                       6.43548
                       3.04016                     -18.90923                       6.99806
                       3.15554                     -20.39772                       7.58210
                       3.27301                     -21.88237                       8.17875
                       3.39024                     -23.36913                       8.77265
                       3.50719                     -24.85810                       9.36352
                       3.62403                     -26.34881                       9.95251
                       3.74077                     -27.84125                      10.53958
                       3.85761                     -29.33484                      11.12600
                       3.97463                     -30.82924                      11.71246
                       4.09186                     -32.32435                      12.29921
                       4.20925                     -33.82032                      12.88599
                       4.32668                     -35.31751                      13.47214
                       4.44404                     -36.81622                      14.05716
                       4.56135                     -38.31641                      14.64126
                       4.67854                     -39.81817                      15.22430
                       4.79558                     -41.32154                      15.80620
                       4.91244                     -42.82669                      16.38705
                       5.02923                     -44.33341                      16.96782
                       5.14587                     -45.84202                      17.54823
                       5.26234                     -47.35252                      18.12844
                       5.37861                     -48.86494                      18.70857
                       5.49470                     -50.37911                      19.28897
                       5.61058                     -51.89493                      19.86986
                       5.72623                     -53.41228                      20.45132
                       5.84165                     -54.93131                      21.03373
                       5.95685                     -56.45211                      21.61728
                       6.07183                     -57.97454                      22.20231
                       6.18659                     -59.49848                      22.78906
                       6.30114                     -61.02372                      23.37777
                       6.41537                     -62.55028                      23.96796
                       6.52921                     -64.07815                      24.55941
                       6.64262                     -65.60719                      25.15196
                       6.75565                     -67.13731                      25.74599
                       6.86828                     -68.66817                      26.34156
                       6.98052                     -70.19947                      26.93864
                       7.09231                     -71.73089                      27.53690
                       7.20361                     -73.26218                      28.13585
                       7.31441                     -74.79260                      28.73539
                       7.43836                     -76.28651                      29.42452
        </DataArray>
        <DataArray type="Float32" Name="RotationalVelocity" NumberOfComponents="3" format="ascii">
                       0.66054                       0.00959                      -0.10569
                       0.66060                       0.00960                      -0.10570
                       0.66071                       0.00960                      -0.10571
                       0.66090                       0.00960                      -0.10572
                       0.66113                       0.00960                      -0.10574
                       0.66141                       0.00960                      -0.10576
                       0.66173                       0.00961                      -0.10579
                       0.66206                       0.00963                      -0.10583
                       0.66241                       0.00965                      -0.10587
                       0.66278                       0.00969                      -0.10591
                       0.66314                       0.00974                      -0.10596
                       0.66351                       0.00980                      -0.10602
                       0.66387                       0.00987                      -0.10607
                       0.66422                       0.00994                      -0.10613
                       0.66457                       0.01001                      -0.10619
                       0.66490                       0.01009                      -0.10625
                       0.66522                       0.01018                      -0.10630
                       0.66553                       0.01026                      -0.10636
                       0.66583                       0.01034                      -0.10642
                       0.66613                       0.01041                      -0.10647
                       0.66641                       0.01048                      -0.10652
                       0.66668                       0.01054                      -0.10657
                       0.66696                       0.01059                      -0.10661
                       0.66723                       0.01063                      -0.10665
                       0.66750                       0.01066                      -0.10668
                       0.66777                       0.01068                      -0.10671
                       0.66804                       0.01068                      -0.10674
                       0.66833                       0.01067                      -0.10676
                       0.66862                       0.01064                      -0.10677
                       0.66892                       0.01060                      -0.10678
                       0.66924                       0.01054                      -0.10678
                       0.66957                       0.01046                      -0.10678
                       0.66991                       0.01037                      -0.10677
                       0.67027                       0.01026                      -0.10675
                       0.67065                       0.01013                      -0.10673
                       0.67104                       0.00999                      -0.10671
                       0.67144                       0.00983                      -0.10668
                       0.67185                       0.00966                      -0.10665
                       0.67226                       0.00948                      -0.10661
                       0.67269                       0.00929                      -0.10657
                       0.67311                       0.00909                      -0.10653
                       0.67352                       0.00888                      -0.10648
                       0.67391                       0.00866                      -0.10643
                       0.67428                       0.00845                      -0.10637
                       0.67462                       0.00822                      -0.10631
                       0.67491                       0.00800                      -0.10625
                       0.67514                       0.00779                      -0.10618
                       0.67531                       0.00758                      -0.10612
                       0.67538                       0.00738                      -0.10604
                       0.67539                       0.00719                      -0.10597
        </DataArray>
        <DataArray type="Float32" Name="TranslationalAcceleration" NumberOfComponents="3" format="ascii">
                      -0.26650                      -0.61897                      -1.63560
                      -0.41314                      -1.01701                      -2.61596
                      -0.56103                      -1.40017                      -3.60174
                      -0.71138                      -1.75383                      -4.59815
                      -0.86346                      -2.08788                      -5.60208
                      -1.01655                      -2.41170                      -6.61056
                      -1.16983                      -2.73564                      -7.62022
                      -1.32215                      -3.07412                      -8.62609
                      -1.47298                      -3.43335                      -9.62597
                      -1.62413                      -3.79048                     -10.62772
                      -1.77533                      -4.14862                     -11.63026
                      -1.92604                      -4.51421                     -12.63139
                      -2.07561                      -4.89534                     -13.62833
                      -2.22450                      -5.28596                     -14.62321
                      -2.37357                      -5.67551                     -15.61977
                      -2.52280                      -6.06379                     -16.61804
                      -2.67213                      -6.45155                     -17.61775
                      -2.82154                      -6.83877                     -18.61886
                      -2.97094                      -7.22626                     -19.62102
                      -3.12028                      -7.61447                     -20.62400
                      -3.26954                      -8.00352                     -21.62772
                      -3.41873                      -8.39321                     -22.63227
                      -3.56792                      -8.78308                     -23.63788
                      -3.71713                      -9.17280                     -24.64474
                      -3.86637                      -9.56249                     -25.65285
                      -4.01565                      -9.95210                     -26.66225
                      -4.16499                     -10.34155                     -27.67298
                      -4.31441                     -10.73089                     -28.68515
                      -4.46387                     -11.12079                     -29.69864
                      -4.61342                     -11.51108                     -30.71366
                      -4.76307                     -11.90190                     -31.73023
                      -4.91284                     -12.29338                     -32.74840
                      -5.06271                     -12.68581                     -33.76806
                      -5.21267                     -13.07938                     -34.78916
                      -5.36273                     -13.47420                     -35.81165
                      -5.51291                     -13.87053                     -36.83563
                      -5.66322                     -14.26853                     -37.86118
                      -5.81364                     -14.66846                     -38.88821
                      -5.96418                     -15.07053                     -39.91665
                      -6.11482                     -15.47492                     -40.94636
                      -6.26557                     -15.88130                     -41.97736
                      -6.41645                     -16.28953                     -43.00963
                      -6.56746                     -16.69948                     -44.04308
                      -6.71858                     -17.11133                     -45.07759
                      -6.86979                     -17.52508                     -46.11293
                      -7.02107                     -17.94062                     -47.14884
                      -7.17239                     -18.35759                     -48.18505
                      -7.32374                     -18.77549                     -49.22132
                      -7.47505                     -19.19407                     -50.25708
                      -7.62138                     -19.67463                     -51.26835
        </DataArray>
        <DataArray type="Float32" Name="OrientationX" NumberOfComponents="3" format="ascii">
                       0.97329                      -0.22948                      -0.00700
                       0.97341                      -0.22899                      -0.00607
                       0.97438                      -0.22488                      -0.00388
                       0.97635                      -0.21617                      -0.00331
                       0.97877                      -0.20486                      -0.00685
                       0.98134                      -0.19176                      -0.01393
                       0.98380                      -0.17765                      -0.02391
                       0.98598                      -0.16308                      -0.03532
                       0.98808                      -0.14748                      -0.04407
                       0.99005                      -0.13166                      -0.04966
                       0.99149                      -0.11793                      -0.05522
                       0.99229                      -0.10722                      -0.06211
                       0.99272                      -0.09822                      -0.06976
                       0.99307                      -0.08898                      -0.07672
                       0.99333                      -0.07992                      -0.08309
                       0.99342                      -0.07142                      -0.08950
                       0.99335                      -0.06367                      -0.09597
                       0.99317                      -0.05667                      -0.10199
                       0.99305                      -0.05004                      -0.10657
                       0.99303                      -0.04366                      -0.10950
                       0.99310                      -0.03742                      -0.11118
                       0.99312                      -0.03159                      -0.11272
                       0.99297                      -0.02661                      -0.11537
                       0.99264                      -0.02243                      -0.11905
                       0.99213                      -0.01897                      -0.12375
                       0.99151                      -0.01601                      -0.12904
                       0.99107                      -0.01268                      -0.13276
                       0.99087                      -0.00892                      -0.13453
                       0.99071                      -0.00531                      -0.13587
                       0.99044                      -0.00226                      -0.13794
                       0.98996                       0.00014                      -0.14133
                       0.98928                       0.00199                      -0.14598
                       0.98840                       0.00343                      -0.15180
                       0.98733                       0.00471                      -0.15860
                       0.98628                       0.00656                      -0.16497
                       0.98537                       0.00960                      -0.17018
                       0.98437                       0.01342                      -0.17559
                       0.98326                       0.01712                      -0.18139
                       0.98207                       0.02037                      -0.18743
                       0.98080                       0.02276                      -0.19366
                       0.97958                       0.02415                      -0.19960
                       0.97856                       0.02358                      -0.20463
                       0.97775                       0.02219                      -0.20861
                       0.97711                       0.02055                      -0.21172
                       0.97656                       0.01846                      -0.21446
                       0.97610                       0.01596                      -0.21674
                       0.97578                       0.01302                      -0.21837
                       0.97558                       0.00936                      -0.21942
                       0.97565                       0.00537                      -0.21928
                       0.97565                       0.00037                      -0.21933
        </DataArray>
        <DataArray type="Float32" Name="OrientationY" NumberOfComponents="3" format="ascii">
                       0.21001                       0.90220                      -0.37674
                       0.20992                       0.90231                      -0.37653
                       0.20700                       0.90337                      -0.37559
                       0.19923                       0.90556                      -0.37452
                       0.18748                       0.90824                      -0.37410
                       0.17273                       0.91114                      -0.37415
                       0.15595                       0.91402                      -0.37449
                       0.13820                       0.91676                      -0.37477
                       0.12054                       0.91945                      -0.37428
                       0.10388                       0.92192                      -0.37320
                       0.08915                       0.92383                      -0.37227
                       0.07670                       0.92517                      -0.37172
                       0.06555                       0.92619                      -0.37131
                       0.05444                       0.92715                      -0.37071
                       0.04371                       0.92800                      -0.37000
                       0.03350                       0.92871                      -0.36928
                       0.02395                       0.92929                      -0.36857
                       0.01527                       0.92975                      -0.36786
                       0.00747                       0.93015                      -0.36711
                       0.00052                       0.93048                      -0.36634
                      -0.00586                       0.93077                      -0.36556
                      -0.01180                       0.93100                      -0.36484
                      -0.01736                       0.93115                      -0.36423
                      -0.02258                       0.93124                      -0.36369
                      -0.02749                       0.93130                      -0.36323
                      -0.03218                       0.93132                      -0.36279
                      -0.03662                       0.93133                      -0.36233
                      -0.04075                       0.93134                      -0.36187
                      -0.04458                       0.93132                      -0.36147
                      -0.04817                       0.93127                      -0.36113
                      -0.05164                       0.93120                      -0.36084
                      -0.05508                       0.93111                      -0.36056
                      -0.05856                       0.93100                      -0.36028
                      -0.06226                       0.93089                      -0.35996
                      -0.06634                       0.93076                      -0.35957
                      -0.07109                       0.93060                      -0.35907
                      -0.07662                       0.93040                      -0.35844
                      -0.08220                       0.93018                      -0.35778
                      -0.08745                       0.92994                      -0.35715
                      -0.09199                       0.92970                      -0.35663
                      -0.09551                       0.92948                      -0.35629
                      -0.09691                       0.92931                      -0.35636
                      -0.09719                       0.92916                      -0.35667
                      -0.09691                       0.92903                      -0.35710
                      -0.09610                       0.92891                      -0.35761
                      -0.09472                       0.92882                      -0.35821
                      -0.09271                       0.92876                      -0.35891
                      -0.08982                       0.92872                      -0.35974
                      -0.08618                       0.92870                      -0.36068
                      -0.08167                       0.92870                      -0.36173
        </DataArray>
        <DataArray type="Float32" Name="OrientationZ" NumberOfComponents="3" format="ascii">
                       0.09277                       0.36521                       0.92629
                       0.09169                       0.36524                       0.92639
                       0.08796                       0.36516                       0.92678
                       0.08396                       0.36501                       0.92721
                       0.08286                       0.36487                       0.92736
                       0.08444                       0.36476                       0.92726
                       0.08838                       0.36469                       0.92692
                       0.09349                       0.36463                       0.92645
                       0.09572                       0.36451                       0.92627
                       0.09492                       0.36433                       0.92642
                       0.09492                       0.36418                       0.92648
                       0.09731                       0.36409                       0.92627
                       0.10109                       0.36403                       0.92588
                       0.10412                       0.36397                       0.92557
                       0.10668                       0.36390                       0.92531
                       0.10950                       0.36385                       0.92500
                       0.11265                       0.36382                       0.92463