<?xml version="1.0"?>
<VTKFile type="PolyData" version="0.1" byte_order="LittleEndian">
  <PolyData>
    <Piece NumberOfPoints="      3" NumberOfVerts="  0" NumberOfLines="      2"
           NumberOfStrips="  0" NumberOfPolys="      0">
      <Points>
        <DataArray type="Float32" NumberOfComponents="3" format="ascii">
                      28.40224                      -0.80676                     147.64286
                      28.40261                      -0.80680                     147.64784
                      28.40186                      -0.80671                     147.63787
        </DataArray>
      </Points>
      <PointData>
        <DataArray type="Float32" Name="TranslationalVelocity" NumberOfComponents="3" format="ascii">
                       0.20020                       0.02312                      -0.03657
                       0.20020                       0.02312                      -0.03657
                       0.20021                       0.02312                      -0.03657
        </DataArray>
        <DataArray type="Float32" Name="RotationalVelocity" NumberOfComponents="3" format="ascii">
                      -0.00026                      -0.00031                      -0.00023
                      -0.00026                      -0.00031                      -0.00023
                      -0.00026                      -0.00031                      -0.00023
        </DataArray>
        <DataArray type="Float32" Name="TranslationalAcceleration" NumberOfComponents="3" format="ascii">
                       0.01076                       0.02240                       0.01162
                       0.01076                       0.02240                       0.01162
                       0.01076                       0.02240                       0.01162
        </DataArray>
        <DataArray type="Float32" Name="RotationalAcceleration" NumberOfComponents="3" format="ascii">
                      -0.00021                       0.00048                      -0.00018
                      -0.00021                       0.00048                      -0.00018
                      -0.00021                       0.00048                      -0.00018
        </DataArray>
        <DataArray type="Float32" Name="OrientationX" NumberOfComponents="3" format="ascii">
                       0.99719                       0.00657                      -0.07459
                       0.99719                       0.00657                      -0.07459
                       0.99719                       0.00657                      -0.07459
        </DataArray>
        <DataArray type="Float32" Name="OrientationY" NumberOfComponents="3" format="ascii">
                      -0.00588                       0.99994                       0.00947
                      -0.00588                       0.99994                       0.00947
                      -0.00588                       0.99994                       0.00947
        </DataArray>
        <DataArray type="Float32" Name="OrientationZ" NumberOfComponents="3" format="ascii">
                       0.07464                      -0.00900                       0.99717
                       0.07464                      -0.00900                       0.99717
                       0.07464                      -0.00900                       0.99717
        </DataArray>
      </PointData>
      <Lines>
        <DataArray type="Int32" Name="connectivity" format="ascii">
      0      1
      2      0
        </DataArray>
        <DataArray type="Int32" Name="offsets" format="ascii">
      2
      4
        </DataArray>
      </Lines>
    </Piece>
  </PolyData>
</VTKFile>
