<?xml version="1.0"?>
<VTKFile type="PolyData" version="0.1" byte_order="LittleEndian">
  <PolyData>
    <Piece NumberOfPoints="      3" NumberOfVerts="  0" NumberOfLines="      2"
           NumberOfStrips="  0" NumberOfPolys="      0">
      <Points>
        <DataArray type="Float32" NumberOfComponents="3" format="ascii">
                      32.10291                      -0.14012                     147.85604
                      32.10328                      -0.14014                     147.86102
                      32.10255                      -0.14010                     147.85105
        </DataArray>
      </Points>
      <PointData>
        <DataArray type="Float32" Name="TranslationalVelocity" NumberOfComponents="3" format="ascii">
                       0.21051                      -0.07897                      -0.05266
                       0.21051                      -0.07897                      -0.05266
                       0.21052                      -0.07896                      -0.05266
        </DataArray>
        <DataArray type="Float32" Name="RotationalVelocity" NumberOfComponents="3" format="ascii">
                       0.00055                      -0.00016                       0.00010
                       0.00055                      -0.00016                       0.00010
                       0.00055                      -0.00016                       0.00010
        </DataArray>
        <DataArray type="Float32" Name="TranslationalAcceleration" NumberOfComponents="3" format="ascii">
                      -0.01365                      -0.01655                      -0.00325
                      -0.01365                      -0.01655                      -0.00325
                      -0.01365                      -0.01655                      -0.00325
        </DataArray>
        <DataArray type="Float32" Name="RotationalAcceleration" NumberOfComponents="3" format="ascii">
                       0.00003                      -0.00062                      -0.00051
                       0.00003                      -0.00062                      -0.00051
                       0.00003                      -0.00062                      -0.00051
        </DataArray>
        <DataArray type="Float32" Name="OrientationX" NumberOfComponents="3" format="ascii">
                       0.99733                       0.00659                      -0.07275
                       0.99733                       0.00659                      -0.07275
                       0.99733                       0.00659                      -0.07275
        </DataArray>
        <DataArray type="Float32" Name="OrientationY" NumberOfComponents="3" format="ascii">
                      -0.00629                       0.99997                       0.00435
                      -0.00629                       0.99997                       0.00435
                      -0.00629                       0.99997                       0.00435
        </DataArray>
        <DataArray type="Float32" Name="OrientationZ" NumberOfComponents="3" format="ascii">
                       0.07277                      -0.00388                       0.99734
                       0.07277                      -0.00388                       0.99734
                       0.07277                      -0.00388                       0.99734
        </DataArray>
      </PointData>
      <Lines>
        <DataArray type="Int32" Name="connectivity" format="ascii">
      0      1
      2      0
        </DataArray>
        <DataArray type="Int32" Name="offsets" format="ascii">
      2
      4
        </DataArray>
      </Lines>
    </Piece>
  </PolyData>
</VTKFile>
