<?xml version="1.0"?>
<VTKFile type="PolyData" version="0.1" byte_order="LittleEndian">
  <PolyData>
    <Piece NumberOfPoints="     50" NumberOfVerts="  0" NumberOfLines="     49"
           NumberOfStrips="  0" NumberOfPolys="      0">
      <Points>
        <DataArray type="Float32" NumberOfComponents="3" format="ascii">
                      21.43403                       2.23544                     146.74218
                      20.95907                       3.63598                     144.86574
                      20.48283                       5.06450                     143.01202
                      20.00041                       6.54813                     141.20408
                      19.51694                       8.06906                     139.42630
                      19.03722                       9.61036                     137.66386
                      18.56518                      11.15323                     135.90073
                      18.10306                      12.67109                     134.11517
                      17.65003                      14.15244                     132.29833
                      17.19721                      15.63922                     130.48597
                      16.74365                      17.12562                     128.67368
                      16.29223                      18.59994                     126.85134
                      15.84845                      20.04758                     125.00597
                      15.41304                      21.47975                     123.14640
                      14.98546                      22.91594                     121.28825
                      14.56645                      24.35647                     119.43167
                      14.15653                      25.79990                     117.57540
                      13.75676                      27.24623                     115.71926
                      13.36539                      28.69378                     113.86232
                      12.97837                      30.14159                     112.00464
                      12.59297                      31.58935                     110.14642
                      12.20675                      33.03745                     108.28826
                      11.82259                      34.48690                     106.43021
                      11.44428                      35.93846                     104.57204
                      11.07417                      37.39196                     102.71310
                      10.71571                      38.84758                     100.85291
                      10.36898                      40.30541                      98.99151
                      10.02664                      41.76557                      97.12995
                       9.68687                      43.22703                      95.26742
                       9.34998                      44.69036                      93.40401
                       9.02008                      46.15541                      91.53884
                       8.70025                      47.62205                      89.67124
                       8.39417                      49.08973                      87.80033
                       8.10427                      50.55809                      85.92557
                       7.83300                      52.02679                      84.04658
                       7.57524                      53.49570                      82.16370
                       7.32915                      54.96473                      80.27692
                       7.09631                      56.43337                      78.38573
                       6.87729                      57.90121                      76.48987
                       6.67355                      59.36774                      74.58903
                       6.48618                      60.83332                      72.68368
                       6.31476                      62.29807                      70.77423
                       6.15915                      63.76198                      68.86104
                       6.01612                      65.22468                      66.94423
                       5.88533                      66.68581                      65.02400
                       5.76597                      68.14513                      63.10074
                       5.65722                      69.60265                      61.17518
                       5.55727                      71.05867                      59.24833
                       5.46599                      72.51261                      57.32080
                       5.36503                      73.85221                      55.30824
        </DataArray>
      </Points>
      <PointData>
        <DataArray type="Float32" Name="TranslationalVelocity" NumberOfComponents="3" format="ascii">
                       0.21675                       2.27182                       1.76418
                       0.39424                       3.70179                       2.78656
                       0.57547                       5.11524                       3.82925
                       0.76408                       6.49591                       4.91194
                       0.95769                       7.85444                       6.02154
                       1.15398                       9.20093                       7.14563
                       1.35044                      10.54651                       8.27044
                       1.54347                      11.90664                       9.37660
                       1.73153                      13.28784                      10.45574
                       1.92021                      14.66522                      11.53839
                       2.10873                      16.04210                      12.62033
                       2.29549                      17.42545                      13.69307
                       2.47853                      18.82397                      14.74598
                       2.65935                      20.23116                      15.78725
                       2.84052                      21.63573                      16.83102
                       3.02210                      23.03752                      17.87756
                       3.20389                      24.43737                      18.92581
                       3.38588                      25.83530                      19.97580
                       3.56786                      27.23224                      21.02631
                       3.74972                      28.62868                      22.07667
                       3.93142                      30.02485                      23.12667
                       4.11304                      31.42064                      24.17662
                       4.29473                      32.81564                      25.22723
                       4.47661                      34.20955                      26.27904
                       4.65867                      35.60254                      27.33191
                       4.84098                      36.99449                      28.38595
                       5.02356                      38.38538                      29.44122
                       5.20648                      39.77538                      30.49781
                       5.38962                      41.16531                      31.55496
                       5.57309                      42.55504                      32.61307
                       5.75692                      43.94468                      33.67198
                       5.94111                      45.33427                      34.73156
                       6.12563                      46.72396                      35.79138
                       6.31047                      48.11380                      36.85114
                       6.49562                      49.50370                      37.91056
                       6.68109                      50.89409                      38.96955
                       6.86692                      52.28517                      40.02803
                       7.05307                      53.67707                      41.08558
                       7.23951                      55.06991                      42.14192
                       7.42621                      56.46368                      43.19666
                       7.61323                      57.85791                      44.25005
                       7.80062                      59.25235                      45.30219
                       7.98840                      60.64677                      46.35309
                       8.17654                      62.04155                      47.40253
                       8.36500                      63.43661                      48.45030
                       8.55376                      64.83184                      49.49628
                       8.74282                      66.22690                      50.54058
                       8.93222                      67.62141                      51.58352
                       9.12185                      69.01507                      52.62479
                       9.29699                      70.47093                      53.58406
        </DataArray>
        <DataArray type="Float32" Name="RotationalVelocity" NumberOfComponents="3" format="ascii">
                       0.72881                       0.00351                      -0.13144
                       0.72877                       0.00351                      -0.13142
                       0.72868                       0.00350                      -0.13140
                       0.72853                       0.00349                      -0.13137
                       0.72835                       0.00347                      -0.13134
                       0.72813                       0.00345                      -0.13129
                       0.72789                       0.00343                      -0.13124
                       0.72762                       0.00342                      -0.13118
                       0.72735                       0.00341                      -0.13111
                       0.72706                       0.00340                      -0.13103
                       0.72678                       0.00341                      -0.13095
                       0.72649                       0.00342                      -0.13087
                       0.72621                       0.00343                      -0.13078
                       0.72594                       0.00345                      -0.13069
                       0.72567                       0.00347                      -0.13060
                       0.72541                       0.00349                      -0.13051
                       0.72516                       0.00352                      -0.13042
                       0.72492                       0.00354                      -0.13033
                       0.72468                       0.00356                      -0.13025
                       0.72446                       0.00358                      -0.13017
                       0.72424                       0.00360                      -0.13009
                       0.72402                       0.00361                      -0.13002
                       0.72381                       0.00362                      -0.12996
                       0.72360                       0.00361                      -0.12991
                       0.72339                       0.00360                      -0.12986
                       0.72317                       0.00358                      -0.12982
                       0.72295                       0.00354                      -0.12978
                       0.72273                       0.00350                      -0.12976
                       0.72250                       0.00344                      -0.12974
                       0.72226                       0.00337                      -0.12973
                       0.72200                       0.00328                      -0.12973
                       0.72174                       0.00318                      -0.12973
                       0.72147                       0.00307                      -0.12975
                       0.72118                       0.00295                      -0.12976
                       0.72088                       0.00281                      -0.12979
                       0.72057                       0.00266                      -0.12982
                       0.72024                       0.00250                      -0.12986
                       0.71991                       0.00233                      -0.12991
                       0.71958                       0.00215                      -0.12996
                       0.71924                       0.00196                      -0.13001
                       0.71890                       0.00177                      -0.13007
                       0.71856                       0.00157                      -0.13014
                       0.71824                       0.00137                      -0.13021
                       0.71794                       0.00117                      -0.13029
                       0.71767                       0.00097                      -0.13037
                       0.71743                       0.00077                      -0.13046
                       0.71723                       0.00058                      -0.13056
                       0.71710                       0.00041                      -0.13066
                       0.71703                       0.00025                      -0.13077
                       0.71702                       0.00010                      -0.13088
        </DataArray>
        <DataArray type="Float32" Name="TranslationalAcceleration" NumberOfComponents="3" format="ascii">
                       0.29556                      -1.34829                       1.69541
                       0.48893                      -2.11446                       2.73817
                       0.68021                      -2.89581                       3.76886
                       0.86738                      -3.70704                       4.77563
                       1.05183                      -4.53818                       5.76621
                       1.23489                      -5.37974                       6.74796
                       1.41801                      -6.22129                       7.72896
                       1.60318                      -7.04816                       8.72042
                       1.79125                      -7.85401                       9.72702
                       1.97914                      -8.66183                      10.73068
                       2.16729                      -9.46842                      11.73380
                       2.35660                     -10.26736                      12.74140
                       2.54821                     -11.05069                      13.75977
                       2.74132                     -11.82458                      14.78416
                       2.93455                     -12.59969                      15.80644
                       3.12789                     -13.37625                      16.82648
                       3.32149                     -14.15347                      17.84491
                       3.51537                     -14.93140                      18.86174
                       3.70966                     -15.70915                      19.87764
                       3.90446                     -16.48621                      20.89297
                       4.09979                     -17.26246                      21.90787
                       4.29567                     -18.03812                      22.92227
                       4.49207                     -18.81375                      23.93587
                       4.68897                     -19.58976                      24.94847
                       4.88640                     -20.36607                      25.96020
                       5.08437                     -21.14279                      26.97099
                       5.28290                     -21.91996                      27.98082
                       5.48201                     -22.69761                      28.98978
                       5.68183                     -23.47516                      29.99845
                       5.88236                     -24.25288                      31.00672
                       6.08362                     -25.03069                      32.01467
                       6.28564                     -25.80846                      33.02235
                       6.48845                     -26.58590                      34.02987
                       6.69206                     -27.36276                      35.03727
                       6.89648                     -28.13886                      36.04449
                       7.10176                     -28.91408                      37.05180
                       7.30793                     -29.68835                      38.05932
                       7.51502                     -30.46136                      39.06716
                       7.72303                     -31.23291                      40.07537
                       7.93197                     -32.00272                      41.08397
                       8.14177                     -32.77102                      42.09262
                       8.35237                     -33.53791                      43.10116
                       8.56373                     -34.30343                      44.10942
                       8.77586                     -35.06746                      45.11767
                       8.98873                     -35.82989                      46.12588
                       9.20228                     -36.59074                      47.13400
                       9.41639                     -37.35018                      48.14183
                       9.63097                     -38.10857                      49.14913
                       9.84590                     -38.86586                      50.15576
                      10.06907                     -39.56190                      51.20608
        </DataArray>
        <DataArray type="Float32" Name="OrientationX" NumberOfComponents="3" format="ascii">
                       0.96467                       0.26056                      -0.03912
                       0.96448                       0.26112                      -0.04001
                       0.96431                       0.26097                      -0.04470
                       0.96492                       0.25719                      -0.05272
                       0.96667                       0.24864                      -0.06105
                       0.96925                       0.23615                      -0.06923
                       0.97233                       0.22062                      -0.07682
                       0.97545                       0.20358                      -0.08401
                       0.97769                       0.18822                      -0.09326
                       0.97898                       0.17536                      -0.10412
                       0.98005                       0.16349                      -0.11305
                       0.98125                       0.15192                      -0.11862
                       0.98250                       0.14051                      -0.12224
                       0.98349                       0.12953                      -0.12636
                       0.98426                       0.11910                      -0.13056
                       0.98496                       0.10888                      -0.13419
                       0.98560                       0.09895                      -0.13710
                       0.98614                       0.08975                      -0.13954
                       0.98642                       0.08196                      -0.14234
                       0.98643                       0.07569                      -0.14570
                       0.98624                       0.07054                      -0.14954
                       0.98603                       0.06570                      -0.15307
                       0.98603                       0.06031                      -0.15528
                       0.98621                       0.05442                      -0.15627
                       0.98658                       0.04799                      -0.15610
                       0.98702                       0.04128                      -0.15517
                       0.98722                       0.03573                      -0.15533
                       0.98712                       0.03162                      -0.15681
                       0.98699                       0.02794                      -0.15835
                       0.98699                       0.02390                      -0.15903
                       0.98718                       0.01904                      -0.15846
                       0.98755                       0.01334                      -0.15676
                       0.98803                       0.00684                      -0.15409
                       0.98857                      -0.00045                      -0.15076
                       0.98894                      -0.00767                      -0.14812
                       0.98902                      -0.01451                      -0.14706
                       0.98896                      -0.02192                      -0.14654
                       0.98888                      -0.02962                      -0.14571
                       0.98882                      -0.03730                      -0.14436
                       0.98883                      -0.04468                      -0.14219
                       0.98892                      -0.05129                      -0.13934
                       0.98921                      -0.05607                      -0.13533
                       0.98957                      -0.05948                      -0.13121
                       0.98992                      -0.06198                      -0.12737
                       0.99030                      -0.06388                      -0.12340
                       0.99071                      -0.06512                      -0.11936
                       0.99116                      -0.06552                      -0.11537
                       0.99168                      -0.06499                      -0.11115
                       0.99221                      -0.06318                      -0.10737
                       0.99284                      -0.06097                      -0.10269
        </DataArray>
        <DataArray type="Float32" Name="OrientationY" NumberOfComponents="3" format="ascii">
                       0.17603                      -0.74783                      -0.64013
                       0.17588                      -0.74773                      -0.64028
                       0.17271                      -0.74796                      -0.64088
                       0.16472                      -0.74943                      -0.64127
                       0.15303                      -0.75230                      -0.64080
                       0.13855                      -0.75616                      -0.63955
                       0.12220                      -0.76058                      -0.63764
                       0.10494                      -0.76501                      -0.63541
                       0.08757                      -0.76876                      -0.63351
                       0.07103                      -0.77175                      -0.63195
                       0.05646                      -0.77428                      -0.63032
                       0.04423                      -0.77648                      -0.62859
                       0.03333                      -0.77844                      -0.62683
                       0.02243                      -0.78020                      -0.62513
                       0.01189                      -0.78174                      -0.62349
                       0.00184                      -0.78311                      -0.62188
                      -0.00755                      -0.78432                      -0.62030
                      -0.01609                      -0.78534                      -0.61885
                      -0.02379                      -0.78615                      -0.61758
                      -0.03069                      -0.78678                      -0.61648
                      -0.03702                      -0.78728                      -0.61548
                      -0.04291                      -0.78774                      -0.61451
                      -0.04841                      -0.78819                      -0.61352
                      -0.05355                      -0.78863                      -0.61253
                      -0.05838                      -0.78905                      -0.61155
                      -0.06297                      -0.78944                      -0.61059
                      -0.06735                      -0.78978                      -0.60968
                      -0.07141                      -0.79007                      -0.60885
                      -0.07518                      -0.79035                      -0.60803
                      -0.07869                      -0.79063                      -0.60722
                      -0.08208                      -0.79092                      -0.60639
                      -0.08543                      -0.79122                      -0.60554
                      -0.08882                      -0.79151                      -0.60466
                      -0.09244                      -0.79179                      -0.60375
                      -0.09643                      -0.79206                      -0.60278
                      -0.10109                      -0.79232                      -0.60168
                      -0.10654                      -0.79254                      -0.60044
                      -0.11203                      -0.79274                      -0.59918
                      -0.11721                      -0.79291                      -0.59796
                      -0.12167                      -0.79307                      -0.59686
                      -0.12511                      -0.79325                      -0.59591
                      -0.12641                      -0.79351                      -0.59528
                      -0.12659                      -0.79384                      -0.59481
                      -0.12621                      -0.79419                      -0.59442
                      -0.12528                      -0.79455                      -0.59413
                      -0.12381                      -0.79491                      -0.59397
                      -0.12170                      -0.79526                      -0.59393
                      -0.11873                      -0.79561                      -0.59406
                      -0.11500                      -0.79594                      -0.59435
                      -0.11041                      -0.79625                      -0.59481
        </DataArray>
        <DataArray type="Float32" Name="OrientationZ" NumberOfComponents="3" format="ascii">
                      -0.19605                       0.61063                      -0.76727
                      -0.19710                       0.61050                      -0.76710
                      -0.20069                       0.61028                      -0.76634
                      -0.20444                       0.61009                      -0.76550
                      -0.20526                       0.61010                      -0.76528
                      -0.20337                       0.61029                      -0.76563
                      -0.19910                       0.61061                      -0.76649
                      -0.19363                       0.61099                      -0.76759
                      -0.19093                       0.61121                      -0.76810
                      -0.19117                       0.61127                      -0.76798
                      -0.19059                       0.61136                      -0.76806
                      -0.18760                       0.61155                      -0.76864
                      -0.18323                       0.61179                      -0.76950
                      -0.17956                       0.61198                      -0.77022
                      -0.17632                       0.61213                      -0.77085
                      -0.17280                       0.61227                      -0.77153
                      -0.16891                       0.61241                      -0.77229