<?xml version="1.0"?>
<VTKFile type="PolyData" version="0.1" byte_order="LittleEndian">
  <PolyData>
    <Piece NumberOfPoints="     50" NumberOfVerts="  0" NumberOfLines="     49"
           NumberOfStrips="  0" NumberOfPolys="      0">
      <Points>
        <DataArray type="Float32" NumberOfComponents="3" format="ascii">
                     -11.89953                      -0.02277                     153.97239
                     -11.77750                       0.05006                     156.35734
                     -11.66034                       0.08694                     158.74245
                     -11.55772                       0.05307                     161.12808
                     -11.46349                      -0.02834                     163.51400
                     -11.37182                      -0.13528                     165.90001
                     -11.27740                      -0.24344                     168.28592
                     -11.17569                      -0.31886                     170.67158
                     -11.06698                      -0.34700                     173.05699
                     -10.96602                      -0.38191                     175.44267
                     -10.87370                      -0.41628                     177.82866
                     -10.78625                      -0.43503                     180.21481
                     -10.69681                      -0.41929                     182.60090
                     -10.60645                      -0.38335                     184.98695
                     -10.51844                      -0.35206                     187.37309
                     -10.43252                      -0.32587                     189.75930
                     -10.34843                      -0.30295                     192.14557
                     -10.26553                      -0.28333                     194.53188
                     -10.18584                      -0.26500                     196.91831
                     -10.11385                      -0.24689                     199.30501
                     -10.05271                      -0.22868                     201.69208
                     -10.00544                      -0.21085                     204.07964
                      -9.96966                      -0.19454                     206.46760
                      -9.94212                      -0.18057                     208.85584
                      -9.92093                      -0.16869                     211.24431
                      -9.90300                      -0.15911                     213.63290
                      -9.88884                      -0.15202                     216.02161
                      -9.88656                      -0.14753                     218.41074
                      -9.89846                      -0.14429                     220.80037
                      -9.92481                      -0.14289                     223.19050
                      -9.96204                      -0.14315                     225.58100
                     -10.00760                      -0.14494                     227.97180
                     -10.05829                      -0.14771                     230.36278
                     -10.11216                      -0.15119                     232.75387
                     -10.16722                      -0.15523                     235.14501
                     -10.22906                      -0.15958                     237.53637
                     -10.29989                      -0.16416                     239.92806
                     -10.37837                      -0.16854                     242.32001
                     -10.46413                      -0.17243                     244.71221
                     -10.55576                      -0.17551                     247.10462
                     -10.65223                      -0.17854                     249.49720
                     -10.75383                      -0.18185                     251.88996
                     -10.86039                      -0.18563                     254.28289
                     -10.97459                      -0.18928                     256.67608
                     -11.09605                      -0.19249                     259.06953
                     -11.22460                      -0.19503                     261.46323
                     -11.35985                      -0.19706                     263.85716
                     -11.50217                      -0.19896                     266.25134
                     -11.64983                      -0.20026                     268.64571
                     -11.80622                      -0.05908                     271.04038
        </DataArray>
      </Points>
      <PointData>
        <DataArray type="Float32" Name="RefOrientationX" NumberOfComponents="3" format="ascii">
                       0.96193                      -0.26883                      -0.04922
                       0.96201                      -0.26871                      -0.04824
                       0.96302                      -0.26574                      -0.04437
                       0.96534                      -0.25795                      -0.03982
                       0.96846                      -0.24630                      -0.03773
                       0.97205                      -0.23170                      -0.03791
                       0.97577                      -0.21511                      -0.04011
                       0.97934                      -0.19756                      -0.04319
                       0.98271                      -0.18002                      -0.04319
                       0.98575                      -0.16339                      -0.03993
                       0.98818                      -0.14870                      -0.03723
                       0.98999                      -0.13629                      -0.03670
                       0.99143                      -0.12518                      -0.03735
                       0.99278                      -0.11410                      -0.03711
                       0.99398                      -0.10338                      -0.03623
                       0.99502                      -0.09317                      -0.03544
                       0.99589                      -0.08361                      -0.03485
                       0.99661                      -0.07492                      -0.03395
                       0.99724                      -0.06709                      -0.03169
                       0.99780                      -0.06010                      -0.02783
                       0.99830                      -0.05368                      -0.02267
                       0.99871                      -0.04769                      -0.01737
                       0.99903                      -0.04209                      -0.01324
                       0.99927                      -0.03685                      -0.01019
                       0.99946                      -0.03191                      -0.00817
                       0.99961                      -0.02720                      -0.00670
                       0.99974                      -0.02273                      -0.00342
                       0.99983                      -0.01858                       0.00204
                       0.99986                      -0.01472                       0.00804
                       0.99985                      -0.01111                       0.01336
                       0.99982                      -0.00763                       0.01738
                       0.99979                      -0.00418                       0.02021
                       0.99976                      -0.00069                       0.02195
                       0.99973                       0.00302                       0.02287
                       0.99967                       0.00710                       0.02454
                       0.99954                       0.01187                       0.02785
                       0.99936                       0.01744                       0.03134
                       0.99914                       0.02305                       0.03447
                       0.99891                       0.02833                       0.03722
                       0.99868                       0.03288                       0.03946
                       0.99847                       0.03640                       0.04155
                       0.99833                       0.03776                       0.04367
                       0.99821                       0.03797                       0.04631
                       0.99807                       0.03761                       0.04944
                       0.99795                       0.03669                       0.05245
                       0.99785                       0.03522                       0.05535
                       0.99775                       0.03310                       0.05824
                       0.99769                       0.03009                       0.06085
                       0.99761                       0.02632                       0.06382
                       0.99761                       0.02168                       0.06566
        </DataArray>
        <DataArray type="Float32" Name="RefOrientationY" NumberOfComponents="3" format="ascii">
                       0.26848                       0.96319                      -0.01374
                       0.26838                       0.96322                      -0.01346
                       0.26546                       0.96405                      -0.01223
                       0.25773                       0.96616                      -0.01063
                       0.24611                       0.96919                      -0.00959
                       0.23152                       0.97279                      -0.00903
                       0.21493                       0.97659                      -0.00883
                       0.19737                       0.98029                      -0.00870
                       0.17985                       0.98366                      -0.00790
                       0.16326                       0.98656                      -0.00661
                       0.14859                       0.98888                      -0.00560
                       0.13620                       0.99067                      -0.00505
                       0.12509                       0.99213                      -0.00471
                       0.11402                       0.99347                      -0.00426
                       0.10331                       0.99464                      -0.00377
                       0.09311                       0.99565                      -0.00332
                       0.08356                       0.99650                      -0.00292
                       0.07488                       0.99719                      -0.00255
                       0.06706                       0.99775                      -0.00213
                       0.06007                       0.99819                      -0.00168
                       0.05366                       0.99856                      -0.00122
                       0.04768                       0.99886                      -0.00083
                       0.04209                       0.99911                      -0.00056
                       0.03685                       0.99932                      -0.00038
                       0.03191                       0.99949                      -0.00026
                       0.02720                       0.99963                      -0.00018
                       0.02273                       0.99974                      -0.00008
                       0.01858                       0.99983                       0.00004
                       0.01472                       0.99989                       0.00012
                       0.01111                       0.99994                       0.00015
                       0.00763                       0.99997                       0.00013
                       0.00418                       0.99999                       0.00008
                       0.00069                       1.00000                       0.00002
                      -0.00302                       1.00000                      -0.00007
                      -0.00710                       0.99997                      -0.00017
                      -0.01187                       0.99993                      -0.00033
                      -0.01743                       0.99985                      -0.00055
                      -0.02303                       0.99973                      -0.00079
                      -0.02831                       0.99960                      -0.00105
                      -0.03286                       0.99946                      -0.00130
                      -0.03637                       0.99934                      -0.00151
                      -0.03772                       0.99929                      -0.00165
                      -0.03793                       0.99928                      -0.00176
                      -0.03756                       0.99929                      -0.00186
                      -0.03664                       0.99933                      -0.00193
                      -0.03517                       0.99938                      -0.00195
                      -0.03304                       0.99945                      -0.00193
                      -0.03003                       0.99955                      -0.00183
                      -0.02627                       0.99965                      -0.00168
                      -0.02164                       0.99976                      -0.00142
        </DataArray>
        <DataArray type="Float32" Name="RefOrientationZ" NumberOfComponents="3" format="ascii">
                       0.05110                       0.00000                       0.99869
                       0.05008                       0.00000                       0.99875
                       0.04602                       0.00000                       0.99894
                       0.04122                       0.00000                       0.99915
                       0.03893                       0.00000                       0.99924
                       0.03897                       0.00000                       0.99924
                       0.04107                       0.00000                       0.99916
                       0.04406                       0.00000                       0.99903
                       0.04390                       0.00000                       0.99904
                       0.04047                       0.00000                       0.99918
                       0.03764                       0.00000                       0.99929
                       0.03704                       0.00000                       0.99931
                       0.03765                       0.00000                       0.99929
                       0.03735                       0.00000                       0.99930
                       0.03642                       0.00000                       0.99934
                       0.03560                       0.00000                       0.99937
                       0.03497                       0.00000                       0.99939
                       0.03405                       0.00000                       0.99942
                       0.03176                       0.00000                       0.99950
                       0.02788                       0.00000                       0.99961
                       0.02270                       0.00000                       0.99974
                       0.01739                       0.00000                       0.99985
                       0.01325                       0.00000                       0.99991
                       0.01019                       0.00000                       0.99995
                       0.00818                       0.00000                       0.99997
                       0.00671                       0.00000                       0.99998
                       0.00343                       0.00000                       0.99999
                      -0.00204                       0.00000                       1.00000
                      -0.00804                       0.00000                       0.99997
                      -0.01336                       0.00000                       0.99991
                      -0.01738                       0.00000                       0.99985
                      -0.02021                       0.00000                       0.99980
                      -0.02195                       0.00000                       0.99976
                      -0.02287                       0.00000                       0.99974
                      -0.02454                       0.00000                       0.99970
                      -0.02785                       0.00000                       0.99961
                      -0.03134                       0.00000                       0.99951
                      -0.03448                       0.00000                       0.99941
                      -0.03724                       0.00000                       0.99931
                      -0.03948                       0.00000                       0.99922
                      -0.04158                       0.00000                       0.99914
                      -0.04370                       0.00000                       0.99904
                      -0.04634                       0.00000                       0.99893
                      -0.04947                       0.00000                       0.99878
                      -0.05248                       0.00000                       0.99862
                      -0.05538                       0.00000                       0.99847
                      -0.05828                       0.00000                       0.99830
                      -0.06088                       0.00000                       0.99814
                      -0.06384                       0.00000                       0.99796
                      -0.06567                       0.00000                       0.99784
        </DataArray>
      </PointData>
      <Lines>
        <DataArray type="Int32" Name="connectivity" format="ascii">
      0      1
      1      2
      2      3
      3      4
      4      5
      5      6
      6      7
      7      8
      8      9
      9     10
     10     11
     11     12
     12     13
     13     14
     14     15
     15     16
     16     17
     17     18
     18     19
     19     20
     20     21
     21     22
     22     23
     23     24
     24     25
     25     26
     26     27
     27     28
     28     29
     29     30
     30     31
     31     32
     32     33
     33     34
     34     35
     35     36
     36     37
     37     38
     38     39
     39     40
     40     41
     41     42
     42     43
     43     44
     44     45
     45     46
     46     47
     47     48
     48     49
        </DataArray>
        <DataArray type="Int32" Name="offsets" format="ascii">
      2
      4
      6
      8
     10
     12
     14
     16
     18
     20
     22
     24
     26
     28
     30
     32
     34
     36
     38
     40
     42
     44
     46
     48
     50
     52
     54
     56
     58
     60
     62
     64
     66
     68
     70
     72
     74
     76
     78
     80
     82
     84
     86
     88
     90
     92
     94
     96
     98
        </DataArray>
      </Lines>
    </Piece>
  </PolyData>
</VTKFile>
