<?xml version="1.0"?>
<VTKFile type="PolyData" version="0.1" byte_order="LittleEndian">
  <PolyData>
    <Piece NumberOfPoints="      3" NumberOfVerts="  0" NumberOfLines="      2"
           NumberOfStrips="  0" NumberOfPolys="      0">
      <Points>
        <DataArray type="Float32" NumberOfComponents="3" format="ascii">
                      27.69303                      -0.73763                     147.83843
                      27.69340                      -0.73768                     147.84342
                      27.69265                      -0.73759                     147.83345
        </DataArray>
      </Points>
      <PointData>
        <DataArray type="Float32" Name="TranslationalVelocity" NumberOfComponents="3" format="ascii">
                       0.17814                      -0.05952                      -0.05632
                       0.17814                      -0.05952                      -0.05632
                       0.17814                      -0.05952                      -0.05632
        </DataArray>
        <DataArray type="Float32" Name="RotationalVelocity" NumberOfComponents="3" format="ascii">
                       0.00038                      -0.00029                       0.00015
                       0.00038                      -0.00029                       0.00015
                       0.00038                      -0.00029                       0.00015
        </DataArray>
        <DataArray type="Float32" Name="TranslationalAcceleration" NumberOfComponents="3" format="ascii">
                       0.00274                       0.01778                      -0.00227
                       0.00274                       0.01778                      -0.00227
                       0.00275                       0.01778                      -0.00227
        </DataArray>
        <DataArray type="Float32" Name="RotationalAcceleration" NumberOfComponents="3" format="ascii">
                      -0.00025                      -0.00045                      -0.00067
                      -0.00025                      -0.00045                      -0.00067
                      -0.00025                      -0.00045                      -0.00067
        </DataArray>
        <DataArray type="Float32" Name="OrientationX" NumberOfComponents="3" format="ascii">
                       0.99715                       0.00644                      -0.07516
                       0.99715                       0.00644                      -0.07516
                       0.99715                       0.00644                      -0.07516
        </DataArray>
        <DataArray type="Float32" Name="OrientationY" NumberOfComponents="3" format="ascii">
                      -0.00577                       0.99994                       0.00919
                      -0.00577                       0.99994                       0.00919
                      -0.00577                       0.99994                       0.00919
        </DataArray>
        <DataArray type="Float32" Name="OrientationZ" NumberOfComponents="3" format="ascii">
                       0.07522                      -0.00873                       0.99713
                       0.07522                      -0.00873                       0.99713
                       0.07522                      -0.00873                       0.99713
        </DataArray>
      </PointData>
      <Lines>
        <DataArray type="Int32" Name="connectivity" format="ascii">
      0      1
      2      0
        </DataArray>
        <DataArray type="Int32" Name="offsets" format="ascii">
      2
      4
        </DataArray>
      </Lines>
    </Piece>
  </PolyData>
</VTKFile>
