<?xml version="1.0"?>
<VTKFile type="PolyData" version="0.1" byte_order="LittleEndian">
  <PolyData>
    <Piece NumberOfPoints="     50" NumberOfVerts="  0" NumberOfLines="     49"
           NumberOfStrips="  0" NumberOfPolys="      0">
      <Points>
        <DataArray type="Float32" NumberOfComponents="3" format="ascii">
                      19.49901                      -2.67650                     153.59981
                      19.75608                      -3.79333                     155.69618
                      20.00519                      -4.94132                     157.77557
                      20.23482                      -6.15079                     159.82181
                      20.45443                      -7.40213                     161.84503
                      20.67296                      -8.67668                     163.85488
                      20.89891                      -9.95374                     165.86223
                      21.14085                     -11.20409                     167.88286
                      21.40065                     -12.41522                     169.92376
                      21.65935                     -13.63357                     171.96037
                      21.91738                     -14.85279                     173.99633
                      22.18055                     -16.05997                     176.03849
                      22.45796                     -17.23892                     178.09512
                      22.74773                     -18.40197                     180.15929
                      23.04476                     -19.57050                     182.21921
                      23.34972                     -20.74485                     184.27456
                      23.66352                     -21.92334                     186.32612
                      23.98720                     -23.10595                     188.37373
                      24.31942                     -24.29082                     190.41864
                      24.65631                     -25.47694                     192.46211
                      24.99525                     -26.66397                     194.50488
                      25.33372                     -27.85234                     196.54730
                      25.67444                     -29.04305                     198.58848
                      26.02106                     -30.23684                     200.62740
                      26.37595                     -31.43346                     202.66384
                      26.74251                     -32.63304                     204.69706
                      27.12076                     -33.83569                     206.72698
                      27.50340                     -35.04162                     208.75522
                      27.88893                     -36.24973                     210.78300
                      28.27761                     -37.46061                     212.81020
                      28.67351                     -38.67409                     214.83618
                      29.07969                     -39.88998                     216.86041
                      29.49982                     -41.10771                     218.88236
                      29.93632                     -42.32690                     220.90160
                      30.39153                     -43.54724                     222.91756
                      30.86047                     -44.76866                     224.93170
                      31.34138                     -45.99111                     226.94462
                      31.83583                     -47.21404                     228.95618
                      32.34440                     -48.43708                     230.96636
                      32.86851                     -49.65971                     232.97490
                      33.40898                     -50.88234                     234.98100
                      33.96524                     -52.10515                     236.98449
                      34.53703                     -53.32811                     238.98511
                      35.12123                     -54.55080                     240.98390
                      35.71743                     -55.77279                     242.98081
                      36.32472                     -56.99374                     244.97583
                      36.94210                     -58.21359                     246.96870
                      37.56756                     -59.43252                     248.95928
                      38.20078                     -60.64975                     250.94717
                      38.85005                     -61.74341                     253.00476
        </DataArray>
      </Points>
      <PointData>
        <DataArray type="Float32" Name="TranslationalVelocity" NumberOfComponents="3" format="ascii">
                      -0.28848                      -2.38076                      -1.30529
                      -0.41813                      -3.78784                      -2.03900
                      -0.55151                      -5.18296                      -2.79324
                      -0.69221                      -6.55425                      -3.58796
                      -0.83788                      -7.90957                      -4.41040
                      -0.98628                      -9.25640                      -5.24839
                      -1.13490                     -10.60295                      -6.08839
                      -1.28023                     -11.96065                      -6.91123
                      -1.42074                     -13.33438                      -7.70868
                      -1.56192                     -14.70574                      -8.51128
                      -1.70298                     -16.07721                      -9.31487
                      -1.84234                     -17.45400                     -10.11095
                      -1.97804                     -18.84263                     -10.88885
                      -2.11151                     -20.23831                     -11.65668
                      -2.24527                     -21.63266                     -12.42853
                      -2.37935                     -23.02551                     -13.20461
                      -2.51351                     -24.41749                     -13.98384
                      -2.64773                     -25.80856                     -14.76619
                      -2.78178                     -27.19939                     -15.55042
                      -2.91550                     -28.59033                     -16.33586
                      -3.04885                     -29.98155                     -17.12227
                      -3.18185                     -31.37297                     -17.90991
                      -3.31462                     -32.76430                     -18.69947
                      -3.44724                     -34.15531                     -19.49142
                      -3.57966                     -35.54612                     -20.28563
                      -3.71192                     -36.93662                     -21.08219
                      -3.84401                     -38.32677                     -21.88119
                      -3.97594                     -39.71680                     -22.68275
                      -4.10758                     -41.10736                     -23.48613
                      -4.23898                     -42.49841                     -24.29174
                      -4.37014                     -43.89001                     -25.09950
                      -4.50103                     -45.28220                     -25.90933
                      -4.63159                     -46.67507                     -26.72086
                      -4.76178                     -48.06864                     -27.53389
                      -4.89157                     -49.46281                     -28.34825
                      -5.02095                     -50.85800                     -29.16387
                      -5.14990                     -52.25442                     -29.98074
                      -5.27838                     -53.65217                     -30.79851
                      -5.40635                     -55.05133                     -31.61695
                      -5.53375                     -56.45186                     -32.43572
                      -5.66066                     -57.85336                     -33.25513
                      -5.78711                     -59.25560                     -34.07527
                      -5.91312                     -60.65837                     -34.89613
                      -6.03866                     -62.06196                     -35.71738
                      -6.16371                     -63.46623                     -36.53870
                      -6.28826                     -64.87100                     -37.35983
                      -6.41236                     -66.27589                     -38.18066
                      -6.53606                     -67.68044                     -39.00123
                      -6.65933                     -69.08420                     -39.82092
                      -6.76752                     -70.53640                     -40.55820
        </DataArray>
        <DataArray type="Float32" Name="RotationalVelocity" NumberOfComponents="3" format="ascii">
                       0.65666                       0.00126                      -0.11844
                       0.65670                       0.00125                      -0.11844
                       0.65679                       0.00125                      -0.11845
                       0.65694                       0.00126                      -0.11846
                       0.65713                       0.00128                      -0.11847
                       0.65736                       0.00132                      -0.11847
                       0.65762                       0.00136                      -0.11847
                       0.65790                       0.00142                      -0.11847
                       0.65819                       0.00150                      -0.11846
                       0.65850                       0.00159                      -0.11844
                       0.65880                       0.00169                      -0.11841
                       0.65911                       0.00181                      -0.11837
                       0.65942                       0.00194                      -0.11833
                       0.65972                       0.00208                      -0.11828
                       0.66002                       0.00223                      -0.11823
                       0.66031                       0.00239                      -0.11817
                       0.66059                       0.00255                      -0.11810
                       0.66086                       0.00273                      -0.11803
                       0.66113                       0.00291                      -0.11795
                       0.66138                       0.00310                      -0.11787
                       0.66163                       0.00329                      -0.11779
                       0.66188                       0.00348                      -0.11770
                       0.66212                       0.00368                      -0.11761
                       0.66235                       0.00388                      -0.11752
                       0.66259                       0.00409                      -0.11743
                       0.66283                       0.00430                      -0.11734
                       0.66307                       0.00450                      -0.11724
                       0.66331                       0.00471                      -0.11715
                       0.66356                       0.00492                      -0.11705
                       0.66381                       0.00513                      -0.11696
                       0.66408                       0.00534                      -0.11687
                       0.66435                       0.00555                      -0.11678
                       0.66463                       0.00576                      -0.11669
                       0.66492                       0.00597                      -0.11660
                       0.66522                       0.00617                      -0.11651
                       0.66553                       0.00638                      -0.11643
                       0.66584                       0.00658                      -0.11634
                       0.66616                       0.00677                      -0.11626
                       0.66648                       0.00697                      -0.11619
                       0.66680                       0.00716                      -0.11611
                       0.66712                       0.00734                      -0.11604
                       0.66742                       0.00752                      -0.11597
                       0.66772                       0.00769                      -0.11590
                       0.66799                       0.00785                      -0.11584
                       0.66824                       0.00799                      -0.11578
                       0.66845                       0.00812                      -0.11573
                       0.66862                       0.00824                      -0.11568
                       0.66874                       0.00834                      -0.11563
                       0.66879                       0.00843                      -0.11559
                       0.66878                       0.00849                      -0.11555
        </DataArray>
        <DataArray type="Float32" Name="TranslationalAcceleration" NumberOfComponents="3" format="ascii">
                      -0.32424                       0.85932                      -1.53780
                      -0.48974                       1.34059                      -2.47036
                      -0.65384                       1.83599                      -3.39535
                      -0.81515                       2.35924                      -4.30527
                      -0.97466                       2.90171                      -5.20517
                      -1.13332                       3.45515                      -6.09982
                      -1.29213                       4.01034                      -6.99449
                      -1.45251                       4.55418                      -7.89652
                      -1.61507                       5.08105                      -8.80903
                      -1.77764                       5.61185                      -9.72028
                      -1.94054                       6.14374                     -10.63186
                      -2.10442                       6.67087                     -11.54711
                      -2.27006                       7.18594                     -12.47021
                      -2.43690                       7.69449                     -13.39812
                      -2.60397                       8.20616                     -14.32542
                      -2.77125                       8.72111                     -15.25201
                      -2.93883                       9.23856                     -16.17825
                      -3.10671                       9.75849                     -17.10413
                      -3.27498                      10.28005                     -18.03003
                      -3.44369                      10.80273                     -18.95620
                      -3.61285                      11.32636                     -19.88272
                      -3.78248                      11.85113                     -20.80956
                      -3.95253                      12.37748                     -21.73650
                      -4.12298                      12.90577                     -22.66339
                      -4.29385                      13.43589                     -23.59029
                      -4.46513                      13.96793                     -24.51713
                      -4.63680                      14.50195                     -25.44386
                      -4.80891                      15.03802                     -26.37066
                      -4.98153                      15.57566                     -27.29796
                      -5.15466                      16.11517                     -28.22574
                      -5.32830                      16.65649                     -29.15404
                      -5.50247                      17.19960                     -30.08287
                      -5.67716                      17.74428                     -31.01229
                      -5.85238                      18.29040                     -31.94230
                      -6.02810                      18.83787                     -32.87284
                      -6.20438                      19.38665                     -33.80420
                      -6.38123                      19.93676                     -34.73653
                      -6.55867                      20.48796                     -35.66990
                      -6.73669                      21.04011                     -36.60436
                      -6.91527                      21.59298                     -37.53987
                      -7.09435                      22.14680                     -38.47616
                      -7.27389                      22.70161                     -39.41308
                      -7.45385                      23.25740                     -40.35047
                      -7.63424                      23.81392                     -41.28851
                      -7.81502                      24.37092                     -42.22710
                      -7.99612                      24.92816                     -43.16609
                      -8.17746                      25.48552                     -44.10517
                      -8.35895                      26.04293                     -45.04402
                      -8.54048                      26.59988                     -45.98227
                      -8.72722                      27.09972                     -46.95239
        </DataArray>
        <DataArray type="Float32" Name="OrientationX" NumberOfComponents="3" format="ascii">
                       0.92842                      -0.26235                      -0.26307
                       0.92857                      -0.26276                      -0.26213
                       0.93003                      -0.26192                      -0.25778
                       0.93321                      -0.25702                      -0.25112
                       0.93738                      -0.24735                      -0.24524
                       0.94211                      -0.23380                      -0.24032
                       0.94700                      -0.21734                      -0.23655
                       0.95172                      -0.19941                      -0.23337
                       0.95640                      -0.18285                      -0.22775
                       0.96084                      -0.16854                      -0.21998
                       0.96443                      -0.15547                      -0.21379
                       0.96701                      -0.14315                      -0.21073
                       0.96896                      -0.13125                      -0.20948
                       0.97086                      -0.11972                      -0.20762
                       0.97259                      -0.10871                      -0.20553
                       0.97407                      -0.09800                      -0.20392
                       0.97527                      -0.08766                      -0.20291
                       0.97622                      -0.07812                      -0.20220
                       0.97711                      -0.06992                      -0.20089
                       0.97801                      -0.06316                      -0.19876
                       0.97893                      -0.05746                      -0.19595
                       0.97974                      -0.05211                      -0.19339
                       0.98026                      -0.04641                      -0.19218
                       0.98052                      -0.04037                      -0.19222
                       0.98052                      -0.03398                      -0.19345
                       0.98033                      -0.02740                      -0.19543
                       0.98033                      -0.02184                      -0.19616
                       0.98057                      -0.01756                      -0.19536
                       0.98082                      -0.01371                      -0.19442
                       0.98089                      -0.00962                      -0.19435
                       0.98067                      -0.00490                      -0.19559
                       0.98020                       0.00050                      -0.19801
                       0.97947                       0.00656                      -0.20147
                       0.97854                       0.01330                      -0.20562
                       0.97770                       0.02006                      -0.20905
                       0.97716                       0.02662                      -0.21083
                       0.97666                       0.03381                      -0.21212
                       0.97603                       0.04123                      -0.21370
                       0.97524                       0.04855                      -0.21575
                       0.97425                       0.05549                      -0.21853
                       0.97313                       0.06155                      -0.22187
                       0.97188                       0.06566                      -0.22614
                       0.97070                       0.06840                      -0.23035
                       0.96965                       0.07025                      -0.23420
                       0.96860                       0.07150                      -0.23811
                       0.96759                       0.07210                      -0.24201
                       0.96666                       0.07186                      -0.24578
                       0.96574                       0.07069                      -0.24969
                       0.96503                       0.06830                      -0.25307
                       0.96412                       0.06541                      -0.25727
        </DataArray>
        <DataArray type="Float32" Name="OrientationY" NumberOfComponents="3" format="ascii">
                       0.35641                       0.82883                       0.43130
                       0.35633                       0.82871                       0.43158
                       0.35358                       0.82896                       0.43336
                       0.34619                       0.83040                       0.43656
                       0.33498                       0.83311                       0.44012
                       0.32086                       0.83669                       0.44385
                       0.30475                       0.84070                       0.44760
                       0.28767                       0.84469                       0.45139
                       0.27063                       0.84802                       0.45565
                       0.25453                       0.85063                       0.46005
                       0.24027                       0.85275                       0.46378
                       0.22819                       0.85451                       0.46663
                       0.21736                       0.85602                       0.46903
                       0.20655                       0.85733                       0.47151
                       0.19611                       0.85845                       0.47393
                       0.18615                       0.85940                       0.47621
                       0.17683                       0.86020                       0.47831
                       0.16836                       0.86083                       0.48024
                       0.16074                       0.86127                       0.48206
                       0.15396                       0.86155                       0.48376
                       0.14774                       0.86174                       0.48537
                       0.14195                       0.86188                       0.48685
                       0.13652                       0.86201                       0.48817
                       0.13143                       0.86212                       0.48936
                       0.12664                       0.86222                       0.49045
                       0.12208                       0.86229                       0.49148
                       0.11776                       0.86230                       0.49251
                       0.11376                       0.86228                       0.49350
                       0.11005                       0.86223                       0.49442
                       0.10658                       0.86218                       0.49526
                       0.10324                       0.86213                       0.49605
                       0.09993                       0.86207                       0.49683
                       0.09658                       0.86200                       0.49762
                       0.09303                       0.86190                       0.49847
                       0.08910                       0.86177                       0.49941
                       0.08451                       0.86162                       0.50048
                       0.07915                       0.86141                       0.50171
                       0.07375                       0.86117                       0.50295
                       0.06866                       0.86090                       0.50412
                       0.06429                       0.86063                       0.50515
                       0.06093                       0.86040                       0.50596
                       0.05968                       0.86030                       0.50629
                       0.05954                       0.86028                       0.50634
                       0.05994                       0.86031                       0.50623
                       0.06087                       0.86039                       0.50599
                       0.06234                       0.86051                       0.50560
                       0.06442                       0.86069                       0.50504
                       0.06736                       0.86093                       0.50424
                       0.07101                       0.86124                       0.50322
                       0.07550                       0.86158                       0.50197
        </DataArray>
        <DataArray type="Float32" Name="OrientationZ" NumberOfComponents="3" format="ascii">
                       0.10489                      -0.49419                       0.86301
                       0.10383                      -0.49416                       0.86315
                       0.10018                      -0.49418                       0.86357
                       0.09633                      -0.49434                       0.86392
                       0.09545                      -0.49471                       0.86380
                       0.09730                      -0.49527                       0.86327
                       0.10159                      -0.49597                       0.86238
                       0.10711                      -0.49673                       0.86127
                       0.10982                      -0.49742                       0.86053
                       0.10958                      -0.49803                       0.86021
                       0.11020                      -0.49865                       0.85977
                       0.11327                      -0.49932                       0.85898
                       0.11776                      -0.50001                       0.85798
                       0.12155                      -0.50065                       0.85707
                       0.12492                      -0.50125                       0.85624
                       0.12858                      -0.50182                       0.85536
                       0.13262                      -0.50236                       0.85443