<?xml version="1.0"?>
<VTKFile type="PolyData" version="0.1" byte_order="LittleEndian">
  <PolyData>
    <Piece NumberOfPoints="      3" NumberOfVerts="  0" NumberOfLines="      2"
           NumberOfStrips="  0" NumberOfPolys="      0">
      <Points>
        <DataArray type="Float32" NumberOfComponents="3" format="ascii">
                       0.69890                      -0.10615                     148.65553
                       0.69890                      -0.10616                     148.66053
                       0.69891                      -0.10613                     148.65053
        </DataArray>
      </Points>
      <PointData>
        <DataArray type="Float32" Name="TranslationalVelocity" NumberOfComponents="3" format="ascii">
                       0.90526                      -0.10751                      -0.06096
                       0.90528                      -0.10751                      -0.06096
                       0.90524                      -0.10750                      -0.06096
        </DataArray>
        <DataArray type="Float32" Name="RotationalVelocity" NumberOfComponents="3" format="ascii">
                       0.00044                       0.00477                      -0.00303
                       0.00044                       0.00477                      -0.00303
                       0.00044                       0.00477                      -0.00303
        </DataArray>
        <DataArray type="Float32" Name="TranslationalAcceleration" NumberOfComponents="3" format="ascii">
                       0.65061                       0.14130                      -0.22947
                       0.65074                       0.14130                      -0.22947
                       0.65048                       0.14131                      -0.22947
        </DataArray>
        <DataArray type="Float32" Name="RotationalAcceleration" NumberOfComponents="3" format="ascii">
                       0.00044                       0.02622                       0.00155
                       0.00044                       0.02622                       0.00155
                       0.00044                       0.02622                       0.00155
        </DataArray>
        <DataArray type="Float32" Name="OrientationX" NumberOfComponents="3" format="ascii">
                       1.00000                       0.00033                       0.00096
                       1.00000                       0.00033                       0.00096
                       1.00000                       0.00033                       0.00096
        </DataArray>
        <DataArray type="Float32" Name="OrientationY" NumberOfComponents="3" format="ascii">
                      -0.00034                       1.00000                       0.00314
                      -0.00034                       1.00000                       0.00314
                      -0.00034                       1.00000                       0.00314
        </DataArray>
        <DataArray type="Float32" Name="OrientationZ" NumberOfComponents="3" format="ascii">
                      -0.00095                      -0.00314                       0.99999
                      -0.00095                      -0.00314                       0.99999
                      -0.00095                      -0.00314                       0.99999
        </DataArray>
      </PointData>
      <Lines>
        <DataArray type="Int32" Name="connectivity" format="ascii">
      0      1
      2      0
        </DataArray>
        <DataArray type="Int32" Name="offsets" format="ascii">
      2
      4
        </DataArray>
      </Lines>
    </Piece>
  </PolyData>
</VTKFile>
