<?xml version="1.0"?>
<VTKFile type="PolyData" version="0.1" byte_order="LittleEndian">
  <PolyData>
    <Piece NumberOfPoints="      3" NumberOfVerts="  0" NumberOfLines="      2"
           NumberOfStrips="  0" NumberOfPolys="      0">
      <Points>
        <DataArray type="Float32" NumberOfComponents="3" format="ascii">
                      31.66933                      -0.72837                     147.74032
                      31.66970                      -0.72841                     147.74530
                      31.66895                      -0.72833                     147.73533
        </DataArray>
      </Points>
      <PointData>
        <DataArray type="Float32" Name="TranslationalVelocity" NumberOfComponents="3" format="ascii">
                      -0.19676                       0.08059                      -0.04756
                      -0.19677                       0.08059                      -0.04756
                      -0.19676                       0.08059                      -0.04756
        </DataArray>
        <DataArray type="Float32" Name="RotationalVelocity" NumberOfComponents="3" format="ascii">
                      -0.00047                      -0.00019                       0.00025
                      -0.00047                      -0.00019                       0.00025
                      -0.00047                      -0.00019                       0.00025
        </DataArray>
        <DataArray type="Float32" Name="TranslationalAcceleration" NumberOfComponents="3" format="ascii">
                      -0.00816                       0.00855                       0.00483
                      -0.00816                       0.00855                       0.00483
                      -0.00816                       0.00855                       0.00483
        </DataArray>
        <DataArray type="Float32" Name="RotationalAcceleration" NumberOfComponents="3" format="ascii">
                      -0.00019                      -0.00054                      -0.00069
                      -0.00019                      -0.00054                      -0.00069
                      -0.00019                      -0.00054                      -0.00069
        </DataArray>
        <DataArray type="Float32" Name="OrientationX" NumberOfComponents="3" format="ascii">
                       0.99714                       0.00436                      -0.07543
                       0.99714                       0.00436                      -0.07543
                       0.99714                       0.00436                      -0.07543
        </DataArray>
        <DataArray type="Float32" Name="OrientationY" NumberOfComponents="3" format="ascii">
                      -0.00375                       0.99996                       0.00826
                      -0.00375                       0.99996                       0.00826
                      -0.00375                       0.99996                       0.00826
        </DataArray>
        <DataArray type="Float32" Name="OrientationZ" NumberOfComponents="3" format="ascii">
                       0.07547                      -0.00795                       0.99712
                       0.07547                      -0.00795                       0.99712
                       0.07547                      -0.00795                       0.99712
        </DataArray>
      </PointData>
      <Lines>
        <DataArray type="Int32" Name="connectivity" format="ascii">
      0      1
      2      0
        </DataArray>
        <DataArray type="Int32" Name="offsets" format="ascii">
      2
      4
        </DataArray>
      </Lines>
    </Piece>
  </PolyData>
</VTKFile>
