<?xml version="1.0"?>
<VTKFile type="PolyData" version="0.1" byte_order="LittleEndian">
  <PolyData>
    <Piece NumberOfPoints="     50" NumberOfVerts="  0" NumberOfLines="     49"
           NumberOfStrips="  0" NumberOfPolys="      0">
      <Points>
        <DataArray type="Float32" NumberOfComponents="3" format="ascii">
                      21.74281                      -4.86434                     149.24189
                      21.56651                      -7.22257                     148.90156
                      21.37913                      -9.57386                     148.52716
                      21.16620                     -11.91113                     148.08612
                      20.93918                     -14.23892                     147.59896
                      20.70887                     -16.56155                     147.08523
                      20.48588                     -18.88378                     146.56691
                      20.28173                     -21.21216                     146.07555
                      20.09960                     -23.54945                     145.62498
                      19.91601                     -25.88478                     145.16566
                      19.73210                     -28.21957                     144.70471
                      19.55496                     -30.55694                     144.25581
                      19.39531                     -32.90086                     143.83580
                      19.25009                     -35.24858                     143.43103
                      19.11213                     -37.59523                     143.01814
                      18.98210                     -39.94070                     142.59663
                      18.86112                     -42.28536                     142.16824
                      18.75027                     -44.62919                     141.73283
                      18.64845                     -46.97253                     141.29273
                      18.55192                     -49.31561                     140.84979
                      18.45811                     -51.65859                     140.40489
                      18.36450                     -54.00154                     139.95807
                      18.27370                     -56.34437                     139.50775
                      18.18932                     -58.68698                     139.05249
                      18.11378                     -61.02944                     138.59215
                      18.05049                     -63.37166                     138.12596
                      17.99949                     -65.71359                     137.65379
                      17.95347                     -68.05562                     137.17684
                      17.91103                     -70.39832                     136.69671
                      17.87235                     -72.74181                     136.21277
                      17.84158                     -75.08604                     135.72447
                      17.82181                     -77.43097                     135.23140
                      17.81685                     -79.77646                     134.73349
                      17.82918                     -82.12235                     134.23062
                      17.86123                     -84.46835                     133.72260
                      17.90802                     -86.81500                     133.21056
                      17.96775                     -89.16257                     132.69496
                      18.04212                     -91.51095                     132.17604
                      18.13173                     -93.86011                     131.65411
                      18.23812                     -96.20979                     131.12937
                      18.36210                     -98.55953                     130.60110
                      18.50309                    -100.90908                     130.06915
                      18.66083                    -103.25814                     129.53352
                      18.83220                    -105.60705                     128.99536
                      19.01682                    -107.95555                     128.45515
                      19.21378                    -110.30339                     127.91340
                      19.42207                    -112.65013                     127.37027
                      19.63961                    -114.99541                     126.82590
                      19.86613                    -117.33856                     126.28107
                      20.12180                    -119.70986                     125.87315
        </DataArray>
      </Points>
      <PointData>
        <DataArray type="Float32" Name="TranslationalVelocity" NumberOfComponents="3" format="ascii">
                      -0.38978                       0.56984                      -2.71810
                      -0.69247                       0.83485                      -4.39757
                      -0.99441                       1.12553                      -6.07201
                      -1.29486                       1.46695                      -7.73626
                      -1.59430                       1.84300                      -9.39358
                      -1.89323                       2.23835                     -11.04707
                      -2.19218                       2.63601                     -12.70013
                      -2.49185                       3.01200                     -14.35746
                      -2.79255                       3.35609                     -16.02102
                      -3.09314                       3.70655                     -17.68297
                      -3.39376                       4.05818                     -19.34432
                      -3.69478                       4.40033                     -21.00730
                      -3.99664                       4.71964                     -22.67480
                      -4.29906                       5.02622                     -24.34484
                      -4.60154                       5.33764                     -26.01391
                      -4.90407                       5.65413                     -27.68198
                      -5.20671                       5.97433                     -29.34928
                      -5.50946                       6.29820                     -31.01583
                      -5.81238                       6.62422                     -32.68186
                      -6.11548                       6.95155                     -34.34753
                      -6.41880                       7.27989                     -36.01293
                      -6.72236                       7.60956                     -37.67812
                      -7.02616                       7.94132                     -39.34304
                      -7.33020                       8.27575                     -41.00764
                      -7.63450                       8.61263                     -42.67198
                      -7.93906                       8.95206                     -44.33600
                      -8.24388                       9.29413                     -45.99968
                      -8.54902                       9.63893                     -47.66325
                      -8.85455                       9.98550                     -49.32711
                      -9.16049                      10.33427                     -50.99133
                      -9.46686                      10.68509                     -52.65589
                      -9.77366                      11.03784                     -54.32077
                     -10.08087                      11.39208                     -55.98589
                     -10.38849                      11.74756                     -57.65113
                     -10.69647                      12.10410                     -59.31630
                     -11.00490                      12.46153                     -60.98174
                     -11.31381                      12.81977                     -62.64763
                     -11.62319                      13.17841                     -64.31391
                     -11.93304                      13.53715                     -65.98053
                     -12.24331                      13.89564                     -67.64735
                     -12.55396                      14.25429                     -69.31402
                     -12.86496                      14.61326                     -70.98038
                     -13.17624                      14.97259                     -72.64623
                     -13.48785                      15.33186                     -74.31179
                     -13.79973                      15.69078                     -75.97691
                     -14.11184                      16.04911                     -77.64142
                     -14.42409                      16.40686                     -79.30505
                     -14.73640                      16.76421                     -80.96756
                     -15.04867                      17.12064                     -82.62853
                     -15.36410                      17.37618                     -84.30959
        </DataArray>
        <DataArray type="Float32" Name="RotationalVelocity" NumberOfComponents="3" format="ascii">
                       0.71250                       0.00430                      -0.12774
                       0.71249                       0.00430                      -0.12773
                       0.71246                       0.00430                      -0.12773
                       0.71242                       0.00430                      -0.12774
                       0.71236                       0.00431                      -0.12774
                       0.71229                       0.00432                      -0.12776
                       0.71222                       0.00433                      -0.12778
                       0.71213                       0.00434                      -0.12780
                       0.71204                       0.00436                      -0.12783
                       0.71195                       0.00437                      -0.12787
                       0.71185                       0.00439                      -0.12791
                       0.71176                       0.00441                      -0.12796
                       0.71166                       0.00442                      -0.12802
                       0.71157                       0.00444                      -0.12808
                       0.71147                       0.00446                      -0.12814
                       0.71138                       0.00449                      -0.12822
                       0.71129                       0.00451                      -0.12829
                       0.71120                       0.00453                      -0.12837
                       0.71112                       0.00455                      -0.12845
                       0.71103                       0.00458                      -0.12854
                       0.71095                       0.00460                      -0.12863
                       0.71087                       0.00462                      -0.12873
                       0.71079                       0.00465                      -0.12882
                       0.71071                       0.00467                      -0.12893
                       0.71063                       0.00470                      -0.12903
                       0.71054                       0.00473                      -0.12914
                       0.71046                       0.00475                      -0.12925
                       0.71038                       0.00478                      -0.12936
                       0.71029                       0.00481                      -0.12948
                       0.71021                       0.00484                      -0.12960
                       0.71012                       0.00487                      -0.12972
                       0.71002                       0.00490                      -0.12985
                       0.70993                       0.00493                      -0.12997
                       0.70983                       0.00496                      -0.13010
                       0.70973                       0.00499                      -0.13023
                       0.70963                       0.00502                      -0.13036
                       0.70952                       0.00506                      -0.13049
                       0.70942                       0.00509                      -0.13062
                       0.70931                       0.00512                      -0.13075
                       0.70921                       0.00516                      -0.13088
                       0.70911                       0.00519                      -0.13101
                       0.70900                       0.00522                      -0.13113
                       0.70891                       0.00525                      -0.13126
                       0.70882                       0.00528                      -0.13137
                       0.70874                       0.00531                      -0.13149
                       0.70866                       0.00533                      -0.13159
                       0.70861                       0.00535                      -0.13169
                       0.70856                       0.00537                      -0.13177
                       0.70854                       0.00539                      -0.13185
                       0.70853                       0.00540                      -0.13192
        </DataArray>
        <DataArray type="Float32" Name="TranslationalAcceleration" NumberOfComponents="3" format="ascii">
                       0.03723                       2.06453                       0.37960
                       0.06220                       3.30023                       0.56762
                       0.09052                       4.53224                       0.77407
                       0.12542                       5.75677                       1.01689
                       0.16483                       6.97612                       1.28473
                       0.20676                       8.19245                       1.56674
                       0.24899                       9.40822                       1.85087
                       0.28840                      10.62684                       2.12011
                       0.32366                      11.84974                       2.36723
                       0.35967                      13.07120                       2.61948
                       0.39575                      14.29195                       2.87320
                       0.43048                      15.51366                       3.12080
                       0.46212                      16.73844                       3.35280
                       0.49193                      17.96488                       3.57640
                       0.52218                      19.19039                       3.80406
                       0.55287                      20.41492                       4.03596
                       0.58381                      21.63869                       4.27109
                       0.61498                      22.86167                       4.50940
                       0.64617                      24.08408                       4.74981
                       0.67726                      25.30603                       4.99169
                       0.70822                      26.52761                       5.23481
                       0.73907                      27.74887                       5.47939
                       0.76993                      28.96977                       5.72596
                       0.80086                      30.19025                       5.97491
                       0.83184                      31.41037                       6.22608
                       0.86291                      32.63006                       6.47954
                       0.89407                      33.84930                       6.73533
                       0.92536                      35.06828                       6.99355
                       0.95666                      36.28729                       7.25350
                       0.98805                      37.50638                       7.51551
                       1.01951                      38.72551                       7.77948
                       1.05107                      39.94465                       8.04533
                       1.08268                      41.16371                       8.31276
                       1.11433                      42.38259                       8.58162
                       1.14602                      43.60111                       8.85177
                       1.17776                      44.81957                       9.12312
                       1.20954                      46.03806                       9.39563
                       1.24134                      47.25655                       9.66902
                       1.27314                      48.47499                       9.94308
                       1.30492                      49.69326                      10.21756
                       1.33674                      50.91111                      10.49275
                       1.36865                      52.12843                      10.76873
                       1.40066                      53.34506                      11.04551
                       1.43275                      54.56122                      11.32276
                       1.46489                      55.77680                      11.60022
                       1.49704                      56.99173                      11.87765
                       1.52923                      58.20583                      12.15496
                       1.56147                      59.41901                      12.43216
                       1.59370                      60.63100                      12.70876
                       1.61266                      61.85895                      12.91407
        </DataArray>
        <DataArray type="Float32" Name="OrientationX" NumberOfComponents="3" format="ascii">
                       0.89531                       0.00576                      -0.44541
                       0.89528                       0.00473                      -0.44549
                       0.89634                       0.00075                      -0.44336
                       0.89952                      -0.00429                      -0.43686
                       0.90456                      -0.00719                      -0.42629
                       0.91092                      -0.00798                      -0.41252
                       0.91804                      -0.00676                      -0.39643
                       0.92531                      -0.00447                      -0.37917
                       0.93204                      -0.00485                      -0.36233
                       0.93791                      -0.00792                      -0.34680
                       0.94292                      -0.00977                      -0.33287
                       0.94717                      -0.00876                      -0.32061
                       0.95095                      -0.00609                      -0.30928
                       0.95454                      -0.00409                      -0.29806
                       0.95785                      -0.00244                      -0.28724
                       0.96092                      -0.00038                      -0.27682
                       0.96371                       0.00217                      -0.26693
                       0.96617                       0.00479                      -0.25785
                       0.96828                       0.00643                      -0.24980
                       0.97005                       0.00685                      -0.24281
                       0.97159                       0.00631                      -0.23658
                       0.97300                       0.00591                      -0.23075
                       0.97433                       0.00693                      -0.22501
                       0.97560                       0.00928                      -0.21936
                       0.97680                       0.01291                      -0.21375
                       0.97793                       0.01733                      -0.20820
                       0.97893                       0.02024                      -0.20319
                       0.97979                       0.02127                      -0.19888
                       0.98057                       0.02205                      -0.19492
                       0.98130                       0.02375                      -0.19102
                       0.98200                       0.02693                      -0.18693
                       0.98268                       0.03147                      -0.18260
                       0.98333                       0.03724                      -0.17796
                       0.98396                       0.04391                      -0.17289
                       0.98460                       0.04989                      -0.16758
                       0.98531                       0.05423                      -0.16192
                       0.98611                       0.05829                      -0.15551
                       0.98685                       0.06272                      -0.14897
                       0.98746                       0.06756                      -0.14266
                       0.98789                       0.07299                      -0.13694
                       0.98810                       0.07868                      -0.13220
                       0.98795                       0.08460                      -0.12959
                       0.98765                       0.09002                      -0.12826
                       0.98728                       0.09476                      -0.12764
                       0.98684                       0.09935                      -0.12761
                       0.98631                       0.10368                      -0.12820
                       0.98572                       0.10759                      -0.12954
                       0.98501                       0.11129                      -0.13181
                       0.98425                       0.11402                      -0.13507
                       0.98330                       0.11737                      -0.13905
        </DataArray>
        <DataArray type="Float32" Name="OrientationY" NumberOfComponents="3" format="ascii">
                       0.43834                      -0.18930                       0.87865
                       0.43821                      -0.18962                       0.87864
                       0.43534                      -0.19081                       0.87981
                       0.42797                      -0.19220                       0.88312
                       0.41703                      -0.19292                       0.88818
                       0.40336                      -0.19305                       0.89444
                       0.38781                      -0.19276                       0.90136
                       0.37130                      -0.19237                       0.90837
                       0.35467                      -0.19265                       0.91493
                       0.33882                      -0.19346                       0.92075
                       0.32477                      -0.19412                       0.92566
                       0.31289                      -0.19443                       0.92968
                       0.30224                      -0.19461                       0.93315
                       0.29158                      -0.19493                       0.93647
                       0.28126                      -0.19532                       0.93954
                       0.27140                      -0.19571                       0.94236
                       0.26215                      -0.19608                       0.94489
                       0.25373                      -0.19648                       0.94711
                       0.24614                      -0.19698                       0.94901
                       0.23935                      -0.19755                       0.95063
                       0.23311                      -0.19815                       0.95205
                       0.22729                      -0.19872                       0.95334
                       0.22185                      -0.19920                       0.95452
                       0.21676                      -0.19961                       0.95560
                       0.21197                      -0.19999                       0.95659
                       0.20741                      -0.20036                       0.95752
                       0.20307                      -0.20079                       0.95836
                       0.19905                      -0.20125                       0.95910
                       0.19532                      -0.20170                       0.95977
                       0.19184                      -0.20213                       0.96039
                       0.18848                      -0.20254                       0.96096
                       0.18517                      -0.20295                       0.96152
                       0.18181                      -0.20338                       0.96207
                       0.17824                      -0.20385                       0.96264
                       0.17430                      -0.20435                       0.96325
                       0.16969                      -0.20490                       0.96396
                       0.16429                      -0.20551                       0.96477
                       0.15885                      -0.20613                       0.96554
                       0.15374                      -0.20675                       0.96624
                       0.14934                      -0.20734                       0.96680
                       0.14596                      -0.20788                       0.96720
                       0.14472                      -0.20824                       0.96731
                       0.14461                      -0.20847                       0.96728
                       0.14506                      -0.20860                       0.96718
                       0.14606                      -0.20865                       0.96702
                       0.14760                      -0.20861                       0.96680
                       0.14976                      -0.20844                       0.96650
                       0.15280                      -0.20813                       0.96609
                       0.15656                      -0.20765                       0.96559
                       0.16117                      -0.20702                       0.96497
        </DataArray>
        <DataArray type="Float32" Name="OrientationZ" NumberOfComponents="3" format="ascii">
                      -0.07925                      -0.98190                      -0.17201
                      -0.08032                      -0.98185                      -0.17184
                      -0.08394                      -0.98163                      -0.17135
                      -0.08775                      -0.98135                      -0.17105
                      -0.08863                      -0.98119                      -0.17150
                      -0.08678                      -0.98116                      -0.17264
                      -0.08251                      -0.98122                      -0.17434
                      -0.07700                      -0.98131                      -0.17635
                      -0.07424                      -0.98126                      -0.17784
                      -0.07439                      -0.98108                      -0.17877
                      -0.07366                      -0.98093                      -0.17986
                      -0.07048                      -0.98088                      -0.18142
                      -0.06588                      -0.98086                      -0.18323
                      -0.06193                      -0.98081                      -0.18488
                      -0.05839                      -0.98074                      -0.18641
                      -0.05454                      -0.98066                      -0.18796
                      -0.05029                      -0.98058                      -0.18954