<?xml version="1.0"?>
<VTKFile type="PolyData" version="0.1" byte_order="LittleEndian">
  <PolyData>
    <Piece NumberOfPoints="     50" NumberOfVerts="  0" NumberOfLines="     49"
           NumberOfStrips="  0" NumberOfPolys="      0">
      <Points>
        <DataArray type="Float32" NumberOfComponents="3" format="ascii">
                      20.50752                       2.48470                     148.06803
                      20.13709                       4.46925                     146.79034
                      19.76672                       6.47227                     145.54355
                      19.39280                       8.51154                     144.35861
                      19.01959                      10.57541                     143.21466
                      18.65109                      12.65279                     142.09188
                      18.29031                      14.73133                     140.96870
                      17.93821                      16.79340                     139.81556
                      17.59340                      18.83129                     138.62020
                      17.24899                      20.87255                     137.43066
                      16.90373                      22.91333                     136.24079
                      16.55995                      24.94594                     135.03709
                      16.22244                      26.96080                     133.80230
                      15.89245                      28.96536                     132.54856
                      15.57040                      30.97257                     131.29724
                      15.25701                      32.98267                     130.04859
                      14.95275                      34.99468                     128.80092
                      14.65866                      37.00864                     127.55408
                      14.37293                      39.02339                     126.30663
                      14.09144                      41.03824                     125.05835
                      13.81147                      43.05300                     123.80934
                      13.53059                      45.06797                     122.56032
                      13.25174                      47.08393                     121.31168
                      12.97876                      49.10144                     120.06342
                      12.71399                      51.12043                     118.81484
                      12.46092                      53.14104                     117.56552
                      12.21963                      55.16335                     116.31555
                      11.98279                      57.18751                     115.06600
                      11.74856                      59.21295                     113.81576
                      11.51728                      61.24015                     112.56509
                      11.29307                      63.26903                     111.31307
                      11.07900                      65.29951                     110.05901
                      10.87875                      67.33117                     108.80181
                      10.69475                      69.36368                     107.54085
                      10.52943                      71.39673                     106.27560
                      10.37768                      73.43036                     105.00637
                      10.23767                      75.46461                     103.73313
                      10.11097                      77.49904                     102.45519
                       9.99812                      79.53334                     101.17217
                       9.90058                      81.56705                      99.88358
                       9.81946                      83.60026                      98.58999
                       9.75434                      85.63300                      97.29181
                       9.70509                      87.66512                      95.98939
                       9.66848                      89.69644                      94.68277
                       9.64414                      91.72660                      93.37203
                       9.63126                      93.75526                      92.05750
                       9.62903                      95.78229                      90.73991
                       9.63564                      97.80774                      89.42038
                       9.65091                      99.83089                      88.09935
                       9.65111                     101.77600                      86.65965
        </DataArray>
      </Points>
      <PointData>
        <DataArray type="Float32" Name="TranslationalVelocity" NumberOfComponents="3" format="ascii">
                       0.28862                       1.49359                       2.52021
                       0.54969                       2.48500                       3.98441
                       0.81332                       3.45357                       5.46215
                       1.08203                       4.37692                       6.96646
                       1.35419                       5.26985                       8.48866
                       1.62825                       6.14641                      10.02051
                       1.90251                       7.02207                      11.55285
                       2.17449                       7.91846                      13.07266
                       2.44312                       8.84477                      14.57426
                       2.71226                       9.76653                      16.07796
                       2.98135                      10.68841                      17.58090
                       3.24933                      11.62007                      19.07743
                       3.51486                      12.57351                      20.56049
                       3.77898                      13.53964                      22.03557
                       4.04348                      14.50270                      23.51220
                       4.30841                      15.46242                      24.99056
                       4.57364                      16.41996                      26.46996
                       4.83919                      17.37533                      27.95040
                       5.10490                      18.32981                      29.43107
                       5.37070                      19.28415                      30.91147
                       5.63659                      20.23863                      32.39148
                       5.90262                      21.19304                      33.87132
                       6.16893                      22.14673                      35.35156
                       6.43562                      23.09919                      36.83260
                       6.70271                      24.05060                      38.31438
                       6.97024                      25.00081                      39.79699
                       7.23825                      25.94975                      41.28046
                       7.50681                      26.89763                      42.76491
                       7.77587                      27.84548                      44.24992
                       8.04553                      28.79306                      45.73580
                       8.31583                      29.74051                      47.22248
                       8.58678                      30.68790                      48.70985
                       8.85836                      31.63552                      50.19758
                       9.13057                      32.58351                      51.68540
                       9.40340                      33.53189                      53.17306
                       9.67690                      34.48112                      54.66057
                       9.95110                      35.43145                      56.14794
                      10.22598                      36.38315                      57.63483
                      10.50152                      37.33642                      59.12099
                      10.77768                      38.29140                      60.60607
                      11.05449                      39.24752                      62.09016
                      11.33198                      40.20450                      63.57326
                      11.61014                      41.16212                      65.05530
                      11.88895                      42.12080                      66.53617
                      12.16835                      43.08051                      68.01566
                      12.44829                      44.04116                      69.49358
                      12.72873                      45.00234                      70.96992
                      13.00963                      45.96351                      72.44482
                      13.29087                      46.92442                      73.91787
                      13.56199                      47.97381                      75.33400
        </DataArray>
        <DataArray type="Float32" Name="RotationalVelocity" NumberOfComponents="3" format="ascii">
                       0.73716                       0.00352                      -0.13383
                       0.73712                       0.00352                      -0.13381
                       0.73706                       0.00352                      -0.13381
                       0.73697                       0.00350                      -0.13380
                       0.73685                       0.00348                      -0.13380
                       0.73671                       0.00345                      -0.13380
                       0.73655                       0.00342                      -0.13380
                       0.73637                       0.00338                      -0.13380
                       0.73619                       0.00335                      -0.13380
                       0.73601                       0.00332                      -0.13379
                       0.73582                       0.00328                      -0.13379
                       0.73563                       0.00325                      -0.13378
                       0.73544                       0.00322                      -0.13377
                       0.73526                       0.00319                      -0.13376
                       0.73508                       0.00316                      -0.13376
                       0.73491                       0.00312                      -0.13375
                       0.73474                       0.00309                      -0.13375
                       0.73458                       0.00305                      -0.13376
                       0.73442                       0.00302                      -0.13377
                       0.73426                       0.00297                      -0.13379
                       0.73411                       0.00293                      -0.13381
                       0.73396                       0.00288                      -0.13385
                       0.73381                       0.00282                      -0.13389
                       0.73366                       0.00276                      -0.13394
                       0.73351                       0.00270                      -0.13401
                       0.73335                       0.00262                      -0.13408
                       0.73319                       0.00254                      -0.13417
                       0.73303                       0.00245                      -0.13426
                       0.73286                       0.00235                      -0.13437
                       0.73268                       0.00224                      -0.13450
                       0.73249                       0.00212                      -0.13463
                       0.73230                       0.00199                      -0.13478
                       0.73209                       0.00186                      -0.13494
                       0.73188                       0.00171                      -0.13511
                       0.73165                       0.00156                      -0.13529
                       0.73142                       0.00140                      -0.13548
                       0.73117                       0.00123                      -0.13568
                       0.73092                       0.00106                      -0.13589
                       0.73067                       0.00088                      -0.13610
                       0.73041                       0.00070                      -0.13632
                       0.73015                       0.00051                      -0.13655
                       0.72989                       0.00032                      -0.13678
                       0.72964                       0.00014                      -0.13700
                       0.72941                      -0.00005                      -0.13723
                       0.72919                      -0.00022                      -0.13746
                       0.72900                      -0.00040                      -0.13769
                       0.72885                      -0.00056                      -0.13790
                       0.72873                      -0.00070                      -0.13811
                       0.72866                      -0.00083                      -0.13831
                       0.72864                      -0.00095                      -0.13849
        </DataArray>
        <DataArray type="Float32" Name="TranslationalAcceleration" NumberOfComponents="3" format="ascii">
                       0.21257                      -1.86856                       1.13534
                       0.35184                      -2.98186                       1.86632
                       0.48813                      -4.10536                       2.58052
                       0.61853                      -5.24891                       3.26152
                       0.74503                      -6.40579                       3.92032
                       0.86949                      -7.56965                       4.56731
                       0.99400                      -8.73343                       5.21394
                       1.12142                      -9.88713                       5.87615
                       1.25299                     -11.02635                       6.56068
                       1.38423                     -12.16661                       7.24217
                       1.51579                     -13.30570                       7.92406
                       1.64895                     -14.43927                       8.61342
                       1.78532                     -15.56193                       9.31905
                       1.92372                     -16.67788                      10.03425
                       2.06212                     -17.79445                      10.74743
                       2.20050                     -18.91179                      11.45838
                       2.33902                     -20.02938                      12.16797
                       2.47770                     -21.14728                      12.87618
                       2.61673                     -22.26485                      13.58393
                       2.75619                     -23.38174                      14.29177
                       2.89613                     -24.49787                      14.99988
                       3.03654                     -25.61341                      15.70810
                       3.17732                     -26.72881                      16.41595
                       3.31841                     -27.84441                      17.12306
                       3.45983                     -28.96018                      17.82956
                       3.60156                     -30.07620                      18.53535
                       3.74358                     -31.19251                      19.24037
                       3.88592                     -32.30917                      19.94477
                       4.02871                     -33.42584                      20.64932
                       4.17191                     -34.54276                      21.35384
                       4.31554                     -35.65987                      22.05844
                       4.45958                     -36.77710                      22.76319
                       4.60408                     -37.89419                      23.46831
                       4.74904                     -39.01095                      24.17392
                       4.89445                     -40.12718                      24.88004
                       5.04035                     -41.24286                      25.58700
                       5.18678                     -42.35797                      26.29498
                       5.33375                     -43.47226                      27.00419
                       5.48127                     -44.58553                      27.71477
                       5.62935                     -45.69753                      28.42682
                       5.77790                     -46.80833                      29.13991
                       5.92684                     -47.91797                      29.85384
                       6.07613                     -49.02643                      30.56841
                       6.22580                     -50.13364                      31.28392
                       6.37581                     -51.23949                      32.00032
                       6.52612                     -52.34392                      32.71751
                       6.67663                     -53.44701                      33.43513
                       6.82723                     -54.54896                      34.15276
                       6.97784                     -55.64962                      34.87015
                       7.14048                     -56.70627                      35.65114
        </DataArray>
        <DataArray type="Float32" Name="OrientationX" NumberOfComponents="3" format="ascii">
                       0.97851                       0.20132                       0.04456
                       0.97836                       0.20217                       0.04392
                       0.97825                       0.20366                       0.03945
                       0.97873                       0.20285                       0.03062
                       0.98008                       0.19760                       0.01983
                       0.98203                       0.18856                       0.00783
                       0.98430                       0.17645                      -0.00466
                       0.98651                       0.16279                      -0.01730
                       0.98797                       0.15144                      -0.03129
                       0.98865                       0.14307                      -0.04592
                       0.98913                       0.13497                      -0.05841
                       0.98972                       0.12599                      -0.06763
                       0.99036                       0.11648                      -0.07498
                       0.99076                       0.10757                      -0.08264
                       0.99097                       0.09922                      -0.09018
                       0.99112                       0.09088                      -0.09711
                       0.99122                       0.08255                      -0.10328
                       0.99125                       0.07477                      -0.10874
                       0.99112                       0.06843                      -0.11405
                       0.99080                       0.06372                      -0.11938
                       0.99035                       0.06025                      -0.12477
                       0.98991                       0.05695                      -0.12975
                       0.98962                       0.05267                      -0.13369
                       0.98948                       0.04749                      -0.13666
                       0.98947                       0.04140                      -0.13870
                       0.98952                       0.03478                      -0.14014
                       0.98939                       0.02962                      -0.14220
                       0.98908                       0.02628                      -0.14500
                       0.98875                       0.02336                      -0.14771
                       0.98853                       0.01980                      -0.14974
                       0.98844                       0.01502                      -0.15086
                       0.98846                       0.00906                      -0.15121
                       0.98854                       0.00200                      -0.15092
                       0.98863                      -0.00603                      -0.15027
                       0.98855                      -0.01375                      -0.15024
                       0.98823                      -0.02057                      -0.15157
                       0.98775                      -0.02774                      -0.15359
                       0.98722                      -0.03528                      -0.15541
                       0.98670                      -0.04299                      -0.15674
                       0.98627                      -0.05071                      -0.15719
                       0.98594                      -0.05794                      -0.15673
                       0.98592                      -0.06386                      -0.15457
                       0.98603                      -0.06853                      -0.15184
                       0.98619                      -0.07226                      -0.14905
                       0.98641                      -0.07546                      -0.14594
                       0.98670                      -0.07808                      -0.14255
                       0.98708                      -0.07988                      -0.13891
                       0.98757                      -0.08090                      -0.13475
                       0.98816                      -0.08056                      -0.13056
                       0.98886                      -0.08014                      -0.12540
        </DataArray>
        <DataArray type="Float32" Name="OrientationY" NumberOfComponents="3" format="ascii">
                       0.14030                      -0.49172                      -0.85938
                       0.14016                      -0.49158                      -0.85948
                       0.13700                      -0.49144                      -0.86007
                       0.12896                      -0.49226                      -0.86084
                       0.11713                      -0.49451                      -0.86125
                       0.10245                      -0.49779                      -0.86122
                       0.08587                      -0.50172                      -0.86076
                       0.06837                      -0.50574                      -0.85998
                       0.05081                      -0.50899                      -0.85927
                       0.03413                      -0.51146                      -0.85863
                       0.01944                      -0.51365                      -0.85778
                       0.00710                      -0.51570                      -0.85674
                      -0.00390                      -0.51761                      -0.85561
                      -0.01488                      -0.51931                      -0.85446
                      -0.02551                      -0.52080                      -0.85330
                      -0.03562                      -0.52216                      -0.85210
                      -0.04507                      -0.52338                      -0.85091
                      -0.05366                      -0.52443                      -0.84976
                      -0.06140                      -0.52526                      -0.84872
                      -0.06832                      -0.52591                      -0.84779
                      -0.07467                      -0.52645                      -0.84692
                      -0.08058                      -0.52695                      -0.84607
                      -0.08611                      -0.52747                      -0.84520
                      -0.09127                      -0.52800                      -0.84433
                      -0.09612                      -0.52853                      -0.84346
                      -0.10074                      -0.52904                      -0.84259
                      -0.10513                      -0.52949                      -0.84177
                      -0.10921                      -0.52990                      -0.84100
                      -0.11299                      -0.53031                      -0.84024
                      -0.11653                      -0.53073                      -0.83949
                      -0.11994                      -0.53119                      -0.83872
                      -0.12331                      -0.53165                      -0.83794
                      -0.12673                      -0.53213                      -0.83713
                      -0.13036                      -0.53259                      -0.83627
                      -0.13437                      -0.53305                      -0.83534
                      -0.13906                      -0.53350                      -0.83429
                      -0.14453                      -0.53393                      -0.83308
                      -0.15005                      -0.53434                      -0.83185
                      -0.15525                      -0.53473                      -0.83064
                      -0.15973                      -0.53510                      -0.82955
                      -0.16319                      -0.53550                      -0.82862
                      -0.16453                      -0.53599                      -0.82803
                      -0.16474                      -0.53655                      -0.82763
                      -0.16439                      -0.53713                      -0.82732
                      -0.16351                      -0.53770                      -0.82713
                      -0.16207                      -0.53825                      -0.82706
                      -0.16000                      -0.53877                      -0.82712
                      -0.15706                      -0.53926                      -0.82736
                      -0.15337                      -0.53970                      -0.82777
                      -0.14881                      -0.54009                      -0.82835
        </DataArray>
        <DataArray type="Float32" Name="OrientationZ" NumberOfComponents="3" format="ascii">
                      -0.15110                       0.84716                      -0.50940
                      -0.15217                       0.84704                      -0.50929
                      -0.15578                       0.84676                      -0.50866
                      -0.15955                       0.84648                      -0.50795
                      -0.16038                       0.84641                      -0.50780
                      -0.15850                       0.84655                      -0.50817
                      -0.15422                       0.84684                      -0.50899
                      -0.14874                       0.84719                      -0.51004
                      -0.14606                       0.84734                      -0.51056
                      -0.14633                       0.84731                      -0.51054
                      -0.14577                       0.84732                      -0.51068
                      -0.14282                       0.84746                      -0.51129
                      -0.13847                       0.84765                      -0.51217
                      -0.13483                       0.84779                      -0.51291
                      -0.13163                       0.84789                      -0.51357
                      -0.12814                       0.84799                      -0.51428
                      -0.12430                       0.84809                      -0.51507