<?xml version="1.0"?>
<VTKFile type="PolyData" version="0.1" byte_order="LittleEndian">
  <PolyData>
    <Piece NumberOfPoints="      3" NumberOfVerts="  0" NumberOfLines="      2"
           NumberOfStrips="  0" NumberOfPolys="      0">
      <Points>
        <DataArray type="Float32" NumberOfComponents="3" format="ascii">
                      30.89274                      -0.77625                     148.04988
                      30.89307                      -0.77629                     148.05487
                      30.89241                      -0.77621                     148.04489
        </DataArray>
      </Points>
      <PointData>
        <DataArray type="Float32" Name="TranslationalVelocity" NumberOfComponents="3" format="ascii">
                      -0.06921                      -0.06404                      -0.00556
                      -0.06923                      -0.06404                      -0.00556
                      -0.06919                      -0.06404                      -0.00557
        </DataArray>
        <DataArray type="Float32" Name="RotationalVelocity" NumberOfComponents="3" format="ascii">
                       0.00043                      -0.00411                       0.00002
                       0.00043                      -0.00411                       0.00002
                       0.00043                      -0.00411                       0.00002
        </DataArray>
        <DataArray type="Float32" Name="TranslationalAcceleration" NumberOfComponents="3" format="ascii">
                       0.04386                       0.01748                      -0.02232
                       0.04386                       0.01748                      -0.02232
                       0.04386                       0.01748                      -0.02232
        </DataArray>
        <DataArray type="Float32" Name="RotationalAcceleration" NumberOfComponents="3" format="ascii">
                      -0.00027                       0.00031                      -0.00061
                      -0.00027                       0.00031                      -0.00061
                      -0.00027                       0.00031                      -0.00061
        </DataArray>
        <DataArray type="Float32" Name="OrientationX" NumberOfComponents="3" format="ascii">
                       0.99784                       0.00724                      -0.06535
                       0.99784                       0.00724                      -0.06535
                       0.99784                       0.00724                      -0.06535
        </DataArray>
        <DataArray type="Float32" Name="OrientationY" NumberOfComponents="3" format="ascii">
                      -0.00669                       0.99994                       0.00863
                      -0.00669                       0.99994                       0.00863
                      -0.00669                       0.99994                       0.00863
        </DataArray>
        <DataArray type="Float32" Name="OrientationZ" NumberOfComponents="3" format="ascii">
                       0.06541                      -0.00818                       0.99783
                       0.06541                      -0.00818                       0.99783
                       0.06541                      -0.00818                       0.99783
        </DataArray>
      </PointData>
      <Lines>
        <DataArray type="Int32" Name="connectivity" format="ascii">
      0      1
      2      0
        </DataArray>
        <DataArray type="Int32" Name="offsets" format="ascii">
      2
      4
        </DataArray>
      </Lines>
    </Piece>
  </PolyData>
</VTKFile>
