<?xml version="1.0"?>
<VTKFile type="PolyData" version="0.1" byte_order="LittleEndian">
  <PolyData>
    <Piece NumberOfPoints="     50" NumberOfVerts="  0" NumberOfLines="     49"
           NumberOfStrips="  0" NumberOfPolys="      0">
      <Points>
        <DataArray type="Float32" NumberOfComponents="3" format="ascii">
                      19.67905                      -4.22878                     152.00699
                      19.79103                      -6.16104                     153.40771
                      19.89376                      -8.11337                     154.77945
                      19.97452                     -10.10519                     156.09428
                      20.04367                     -12.12402                     157.36983
                      20.11095                     -14.15796                     158.62291
                      20.18576                     -16.19377                     159.87233
                      20.27792                     -18.21273                     161.14507
                      20.38985                     -20.20681                     162.45286
                      20.50075                     -22.20566                     163.75319
                      20.61135                     -24.20523                     165.05211
                      20.72802                     -26.19730                     166.36146
                      20.86058                     -28.17163                     167.69580
                      21.00668                     -30.13612                     169.04351
                      21.16042                     -32.10443                     170.38459
                      21.32248                     -34.07676                     171.71861
                      21.49388                     -36.05202                     173.04702
                      21.67572                     -38.03014                     174.36969
                      21.86677                     -40.00992                     175.68854
                      22.06323                     -41.99071                     177.00515
                      22.26252                     -43.97237                     178.32032
                      22.46214                     -45.95524                     179.63418
                      22.66484                     -47.94002                     180.94547
                      22.87428                     -49.92717                     182.25299
                      23.09292                     -51.91652                     183.55663
                      23.32420                     -53.90808                     184.85568
                      23.56819                     -55.90192                     186.15002
                      23.81763                     -57.89844                     187.44096
                      24.07111                     -59.89710                     188.73007
                      24.32889                     -61.89841                     190.01697
                      24.59517                     -63.90218                     191.30114
                      24.87306                     -65.90824                     192.58219
                      25.16635                     -67.91605                     193.85987
                      25.47754                     -69.92523                     195.13392
                      25.80905                     -71.93540                     196.40393
                      26.15594                     -73.94679                     197.67123
                      26.51647                     -75.95951                     198.93637
                      26.89231                     -77.97309                     200.19941
                      27.28408                     -79.98720                     201.46051
                      27.69325                     -82.00130                     202.71963
                      28.12066                     -84.01545                     203.97586
                      28.56574                     -86.02965                     205.22896
                      29.02820                     -88.04371                     206.47871
                      29.50490                     -90.05748                     207.72622
                      29.99539                     -92.07050                     208.97168
                      30.49870                     -94.08235                     210.21525
                      31.01375                     -96.09275                     211.45675
                      31.53837                     -98.10163                     212.69607
                      32.07213                    -100.10801                     213.93325
                      32.62810                    -102.03539                     215.28732
        </DataArray>
      </Points>
      <PointData>
        <DataArray type="Float32" Name="TranslationalVelocity" NumberOfComponents="3" format="ascii">
                       0.03205                      -1.53932                      -2.38845
                      -0.17930                      -2.54131                      -3.75376
                      -0.39311                      -3.52184                      -5.13328
                      -0.61179                      -4.45978                      -6.54072
                      -0.83388                      -5.36879                      -7.96737
                      -1.05796                      -6.26187                      -9.40495
                      -1.28242                      -7.15339                     -10.84421
                      -1.50501                      -8.06356                     -12.27198
                      -1.72475                      -9.00098                     -13.68262
                      -1.94525                      -9.93324                     -15.09697
                      -2.16602                     -10.86470                     -16.51220
                      -2.38606                     -11.80448                     -17.92253
                      -2.60412                     -12.76401                     -19.32073
                      -2.82116                     -13.73480                     -20.71239
                      -3.03885                     -14.70202                     -22.10714
                      -3.25723                     -15.66544                     -23.50509
                      -3.47616                     -16.62619                     -24.90549
                      -3.69563                     -17.58429                     -26.30828
                      -3.91552                     -18.54097                     -27.71258
                      -4.13576                     -19.49689                     -29.11791
                      -4.35633                     -20.45232                     -30.52414
                      -4.57729                     -21.40706                     -31.93150
                      -4.79875                     -22.36053                     -33.34048
                      -5.02080                     -23.31229                     -34.75142
                      -5.24343                     -24.26255                     -36.16422
                      -5.46669                     -25.21120                     -37.57889
                      -5.69060                     -26.15816                     -38.99549
                      -5.91525                     -27.10353                     -40.41426
                      -6.14060                     -28.04828                     -41.83483
                      -6.36675                     -28.99215                     -43.25757
                      -6.59372                     -29.93529                     -44.68237
                      -6.82153                     -30.87777                     -46.10914
                      -7.05016                     -31.81988                     -47.53753
                      -7.27961                     -32.76173                     -48.96728
                      -7.50987                     -33.70335                     -50.39813
                      -7.74100                     -34.64512                     -51.83026
                      -7.97304                     -35.58723                     -53.26374
                      -8.20597                     -36.52994                     -54.69825
                      -8.43978                     -37.47347                     -56.13356
                      -8.67442                     -38.41796                     -57.56931
                      -8.90992                     -39.36289                     -59.00552
                      -9.14630                     -40.30802                     -60.44217
                      -9.38353                     -41.25316                     -61.87912
                      -9.62158                     -42.19874                     -63.31622
                      -9.86038                     -43.14481                     -64.75309
                     -10.09985                     -44.09137                     -66.18938
                     -10.33990                     -45.03813                     -67.62481
                     -10.58047                     -45.98472                     -69.05923
                     -10.82137                     -46.93106                     -70.49185
                     -11.05311                     -47.96353                     -71.86803
        </DataArray>
        <DataArray type="Float32" Name="RotationalVelocity" NumberOfComponents="3" format="ascii">
                       0.70624                       0.00580                      -0.11359
                       0.70628                       0.00580                      -0.11359
                       0.70634                       0.00580                      -0.11360
                       0.70643                       0.00578                      -0.11363
                       0.70654                       0.00575                      -0.11368
                       0.70668                       0.00572                      -0.11373
                       0.70683                       0.00568                      -0.11379
                       0.70700                       0.00565                      -0.11385
                       0.70717                       0.00561                      -0.11392
                       0.70735                       0.00557                      -0.11398
                       0.70753                       0.00553                      -0.11405
                       0.70771                       0.00549                      -0.11411
                       0.70790                       0.00545                      -0.11418
                       0.70807                       0.00542                      -0.11424
                       0.70825                       0.00538                      -0.11431
                       0.70841                       0.00534                      -0.11437
                       0.70857                       0.00530                      -0.11444
                       0.70873                       0.00525                      -0.11451
                       0.70888                       0.00521                      -0.11459
                       0.70902                       0.00516                      -0.11467
                       0.70916                       0.00511                      -0.11475
                       0.70930                       0.00505                      -0.11484
                       0.70943                       0.00499                      -0.11494
                       0.70956                       0.00492                      -0.11504
                       0.70969                       0.00484                      -0.11516
                       0.70981                       0.00476                      -0.11528
                       0.70994                       0.00467                      -0.11542
                       0.71007                       0.00458                      -0.11557
                       0.71020                       0.00447                      -0.11573
                       0.71034                       0.00436                      -0.11590
                       0.71048                       0.00424                      -0.11608
                       0.71063                       0.00411                      -0.11628
                       0.71079                       0.00397                      -0.11649
                       0.71095                       0.00383                      -0.11671
                       0.71111                       0.00367                      -0.11694
                       0.71129                       0.00351                      -0.11718
                       0.71147                       0.00335                      -0.11743
                       0.71165                       0.00318                      -0.11770
                       0.71184                       0.00300                      -0.11796
                       0.71203                       0.00282                      -0.11823
                       0.71222                       0.00264                      -0.11851
                       0.71240                       0.00246                      -0.11878
                       0.71257                       0.00227                      -0.11906
                       0.71273                       0.00210                      -0.11933
                       0.71288                       0.00192                      -0.11959
                       0.71300                       0.00176                      -0.11984
                       0.71309                       0.00160                      -0.12007
                       0.71314                       0.00146                      -0.12028
                       0.71315                       0.00133                      -0.12047
                       0.71312                       0.00122                      -0.12063
        </DataArray>
        <DataArray type="Float32" Name="TranslationalAcceleration" NumberOfComponents="3" format="ascii">
                      -0.07747                       1.69279                      -1.10983
                      -0.19707                       2.67675                      -1.82237
                      -0.31433                       3.67124                      -2.51975
                      -0.42695                       4.68639                      -3.18703
                      -0.53642                       5.71593                      -3.83376
                      -0.64415                       6.75386                      -4.46905
                      -0.75173                       7.79346                      -5.10301
                      -0.86135                       8.82516                      -5.74988
                      -0.97400                       9.84486                      -6.41572
                      -1.08616                      10.86784                      -7.07765
                      -1.19833                      11.89201                      -7.73874
                      -1.31152                      12.91317                      -8.40543
                      -1.42702                      13.92606                      -9.08584
                      -1.54392                      14.93474                      -9.77397
                      -1.66061                      15.94623                     -10.45934
                      -1.77708                      16.96061                     -11.14178
                      -1.89347                      17.97729                     -11.82210
                      -2.00980                      18.99622                     -12.50031
                      -2.12620                      20.01674                     -13.17729
                      -2.24277                      21.03849                     -13.85350
                      -2.35954                      22.06135                     -14.52914
                      -2.47650                      23.08550                     -15.20408
                      -2.59359                      24.11127                     -15.87790
                      -2.71077                      25.13892                     -16.55030
                      -2.82807                      26.16836                     -17.22143
                      -2.94547                      27.19959                     -17.89121
                      -3.06298                      28.23266                     -18.55959
                      -3.18060                      29.26778                     -19.22662
                      -3.29846                      30.30469                     -19.89300
                      -3.41652                      31.34366                     -20.55855
                      -3.53480                      32.38464                     -21.22335
                      -3.65331                      33.42758                     -21.88747
                      -3.77209                      34.47223                     -22.55111
                      -3.89114                      35.51842                     -23.21434
                      -4.01047                      36.56599                     -23.87717
                      -4.13012                      37.61509                     -24.53989
                      -4.25011                      38.66579                     -25.20261
                      -4.37048                      39.71788                     -25.86555
                      -4.49124                      40.77119                     -26.52884
                      -4.61241                      41.82547                     -27.19261
                      -4.73393                      42.88072                     -27.85649
                      -4.85575                      43.93692                     -28.52033
                      -4.97784                      44.99392                     -29.18400
                      -5.10024                      46.05160                     -29.84782
                      -5.22295                      47.10963                     -30.51188
                      -5.34594                      48.16766                     -31.17618
                      -5.46916                      49.22540                     -31.84058
                      -5.59254                      50.28263                     -32.50483
                      -5.71603                      51.33863                     -33.16896
                      -5.84990                      52.35381                     -33.89501
        </DataArray>
        <DataArray type="Float32" Name="OrientationX" NumberOfComponents="3" format="ascii">
                       0.91962                      -0.18689                      -0.34550
                       0.91971                      -0.18769                      -0.34483
                       0.92105                      -0.18892                      -0.34055
                       0.92428                      -0.18759                      -0.33244
                       0.92881                      -0.18169                      -0.32295
                       0.93418                      -0.17190                      -0.31266
                       0.93992                      -0.15898                      -0.30212
                       0.94560                      -0.14447                      -0.29150
                       0.95106                      -0.13222                      -0.27929
                       0.95607                      -0.12291                      -0.26613
                       0.96022                      -0.11394                      -0.25495
                       0.96341                      -0.10421                      -0.24694
                       0.96603                      -0.09400                      -0.24074
                       0.96853                      -0.08437                      -0.23415
                       0.97084                      -0.07529                      -0.22761
                       0.97288                      -0.06624                      -0.22162
                       0.97464                      -0.05723                      -0.21635
                       0.97611                      -0.04878                      -0.21171
                       0.97742                      -0.04178                      -0.20712
                       0.97862                      -0.03642                      -0.20244
                       0.97975                      -0.03229                      -0.19762
                       0.98075                      -0.02834                      -0.19319
                       0.98154                      -0.02346                      -0.18982
                       0.98211                      -0.01769                      -0.18745
                       0.98249                      -0.01105                      -0.18600
                       0.98270                      -0.00389                      -0.18515
                       0.98299                       0.00182                      -0.18363
                       0.98341                       0.00571                      -0.18131
                       0.98379                       0.00917                      -0.17907
                       0.98403                       0.01325                      -0.17752
                       0.98406                       0.01851                      -0.17687
                       0.98389                       0.02492                      -0.17700
                       0.98354                       0.03241                      -0.17777
                       0.98302                       0.04085                      -0.17887
                       0.98257                       0.04898                      -0.17932
                       0.98235                       0.05621                      -0.17839
                       0.98219                       0.06378                      -0.17673
                       0.98191                       0.07170                      -0.17524
                       0.98148                       0.07975                      -0.17420
                       0.98083                       0.08778                      -0.17399
                       0.98001                       0.09528                      -0.17466
                       0.97897                       0.10143                      -0.17702
                       0.97792                       0.10632                      -0.17993
                       0.97694                       0.11023                      -0.18288
                       0.97593                       0.11359                      -0.18614
                       0.97493                       0.11634                      -0.18966
                       0.97397                       0.11825                      -0.19342
                       0.97298                       0.11933                      -0.19768
                       0.97213                       0.11903                      -0.20198
                       0.97108                       0.11863                      -0.20721
        </DataArray>
        <DataArray type="Float32" Name="OrientationY" NumberOfComponents="3" format="ascii">
                       0.39044                       0.53135                       0.75181
                       0.39035                       0.53111                       0.75203
                       0.38755                       0.53071                       0.75375
                       0.38015                       0.53108                       0.75726
                       0.36902                       0.53267                       0.76164
                       0.35502                       0.53515                       0.76653
                       0.33906                       0.53815                       0.77164
                       0.32213                       0.54117                       0.77677
                       0.30520                       0.54338                       0.78204
                       0.28914                       0.54481                       0.78714
                       0.27492                       0.54596                       0.79142
                       0.26288                       0.54701                       0.79478
                       0.25209                       0.54794                       0.79763
                       0.24131                       0.54867                       0.80046
                       0.23089                       0.54922                       0.80315
                       0.22095                       0.54965                       0.80565
                       0.21164                       0.54998                       0.80792
                       0.20317                       0.55016                       0.80996
                       0.19555                       0.55018                       0.81183
                       0.18876                       0.55005                       0.81352
                       0.18253                       0.54983                       0.81509
                       0.17672                       0.54960                       0.81652
                       0.17129                       0.54940                       0.81781
                       0.16621                       0.54923                       0.81898
                       0.16142                       0.54906                       0.82005
                       0.15686                       0.54888                       0.82105
                       0.15254                       0.54863                       0.82203
                       0.14855                       0.54833                       0.82296
                       0.14484                       0.54803                       0.82382
                       0.14138                       0.54774                       0.82462
                       0.13805                       0.54745                       0.82537
                       0.13476                       0.54715                       0.82611
                       0.13143                       0.54683                       0.82686
                       0.12789                       0.54648                       0.82765
                       0.12398                       0.54607                       0.82851
                       0.11941                       0.54561                       0.82949
                       0.11405                       0.54509                       0.83059
                       0.10866                       0.54452                       0.83168
                       0.10360                       0.54394                       0.83270
                       0.09925                       0.54338                       0.83360
                       0.09591                       0.54288                       0.83431
                       0.09470                       0.54259                       0.83464
                       0.09461                       0.54244                       0.83475
                       0.09506                       0.54239                       0.83473
                       0.09605                       0.54242                       0.83460
                       0.09758                       0.54253                       0.83435
                       0.09972                       0.54276                       0.83395
                       0.10271                       0.54312                       0.83335
                       0.10641                       0.54363                       0.83255
                       0.11095                       0.54426                       0.83155
        </DataArray>
        <DataArray type="Float32" Name="OrientationZ" NumberOfComponents="3" format="ascii">
                       0.04308                      -0.82628                       0.56161
                       0.04199                      -0.82626                       0.56173
                       0.03834                      -0.82623                       0.56203
                       0.03450                      -0.82630                       0.56218
                       0.03364                      -0.82659                       0.56180
                       0.03555                      -0.82708                       0.56096
                       0.03991                      -0.82772                       0.55972
                       0.04553                      -0.82841                       0.55827
                       0.04836                      -0.82901                       0.55714
                       0.04825                      -0.82951                       0.55641
                       0.04902                      -0.83003                       0.55556
                       0.05226                      -0.83062                       0.55439
                       0.05694                      -0.83122                       0.55302
                       0.06094                      -0.83177                       0.55176
                       0.06454                      -0.83228                       0.55058
                       0.06845                      -0.83277                       0.54938
                       0.07275                      -0.83322                       0.54814