<?xml version="1.0"?>
<VTKFile type="PolyData" version="0.1" byte_order="LittleEndian">
  <PolyData>
    <Piece NumberOfPoints="     50" NumberOfVerts="  0" NumberOfLines="     49"
           NumberOfStrips="  0" NumberOfPolys="      0">
      <Points>
        <DataArray type="Float32" NumberOfComponents="3" format="ascii">
                       9.39422                       2.83705                     147.06845
                       8.98635                       4.50090                     145.40309
                       8.57781                       6.18930                     143.76414
                       8.16410                       7.92600                     142.17817
                       7.74972                       9.69535                     140.62727
                       7.33888                      11.48245                     139.09443
                       6.93492                      13.27078                     137.56118
                       6.53929                      15.03699                     136.00232
                       6.15073                      16.77094                     134.40748
                       5.76125                      18.50943                     132.81791
                       5.36964                      20.24736                     131.22844
                       4.97842                      21.97447                     129.62747
                       4.59266                      23.67794                     128.00015
                       4.21325                      25.36763                     126.35680
                       3.84009                      27.06065                     124.71563
                       3.47381                      28.75732                     123.07684
                       3.11485                      30.45637                     121.43900
                       2.76418                      32.15782                     119.80194
                       2.41997                      33.86021                     118.16453
                       2.07806                      35.56267                     116.52669
                       1.73566                      37.26498                     114.88861
                       1.39027                      38.96747                     113.25097
                       1.04473                      40.67108                     111.61398
                       0.70278                      42.37648                     109.97754
                       0.36669                      44.08355                     108.34098
                       0.03988                      45.79246                     106.70385
                      -0.27766                      47.50333                     105.06623
                      -0.59336                      49.21628                     103.42922
                      -0.90913                      50.93044                     101.79192
                      -1.22472                      52.64636                     100.15452
                      -1.53610                      54.36393                      98.51611
                      -1.84030                      56.08307                      96.87603
                      -2.13371                      57.80330                      95.23328
                      -2.41399                      59.52432                      93.58727
                      -2.67875                      61.24586                      91.93755
                      -2.93318                      62.96786                      90.28445
                      -3.17918                      64.69029                      88.62801
                      -3.41520                      66.41270                      86.96762
                      -3.64072                      68.13479                      85.30294
                      -3.85430                      69.85612                      83.63356
                      -4.05484                      71.57700                      81.95994
                      -4.24271                      73.29755                      80.28248
                      -4.41799                      75.01776                      78.60148
                      -4.58383                      76.73732                      76.91699
                      -4.74046                      78.45588                      75.22912
                      -4.88853                      80.17320                      73.53815
                      -5.02866                      81.88922                      71.84473
                      -5.16240                      83.60416                      70.14984
                      -5.28959                      85.31738                      68.45390
                      -5.43085                      86.92986                      66.65780
        </DataArray>
      </Points>
      <PointData>
        <DataArray type="Float32" Name="TranslationalVelocity" NumberOfComponents="3" format="ascii">
                       1.92024                       1.83984                       1.89336
                       2.08127                       2.98039                       2.99344
                       2.24514                       4.10355                       4.10964
                       2.41463                       5.19221                       5.25757
                       2.58792                       6.25769                       6.42681
                       2.76324                       7.31068                       7.60747
                       2.93865                       8.36299                       8.78859
                       3.11143                       9.43102                       9.95475
                       3.28040                      10.52170                      11.09931
                       3.44984                      11.60871                      12.24654
                       3.61914                      12.69558                      13.39310
                       3.78711                      13.78967                      14.53222
                       3.95223                      14.90018                      15.65543
                       4.11565                      16.02024                      16.76923
                       4.27935                      17.13789                      17.88487
                       4.44337                      18.25295                      19.00256
                       4.60755                      19.36632                      20.12148
                       4.77191                      20.47802                      21.24162
                       4.93629                      21.58900                      22.36206
                       5.10060                      22.69975                      23.48229
                       5.26485                      23.81047                      24.60216
                       5.42909                      24.92096                      25.72195
                       5.59344                      26.03080                      26.84223
                       5.75799                      27.13967                      27.96340
                       5.92276                      28.24777                      29.08537
                       6.08779                      29.35503                      30.20820
                       6.25310                      30.46140                      31.33197
                       6.41877                      31.56695                      32.45680
                       6.58472                      32.67246                      33.58213
                       6.75104                      33.77778                      34.70830
                       6.91775                      34.88306                      35.83518
                       7.08487                      35.98842                      36.96265
                       7.25238                      37.09411                      38.09037
                       7.42028                      38.20027                      39.21810
                       7.58856                      39.30692                      40.34560
                       7.75726                      40.41438                      41.47287
                       7.92641                      41.52281                      42.59989
                       8.09598                      42.63244                      43.72633
                       8.26597                      43.74341                      44.85198
                       8.43636                      44.85583                      45.97653
                       8.60719                      45.96927                      47.10017
                       8.77851                      47.08351                      48.22300
                       8.95034                      48.19838                      49.34501
                       9.12264                      49.31416                      50.46607
                       9.29539                      50.43085                      51.58597
                       9.46857                      51.54836                      52.70462
                       9.64215                      52.66637                      53.82205
                       9.81616                      53.78444                      54.93848
                       9.99050                      54.90237                      56.05362
                      10.15382                      56.08697                      57.10322
        </DataArray>
        <DataArray type="Float32" Name="RotationalVelocity" NumberOfComponents="3" format="ascii">
                       0.65883                       0.00956                      -0.10636
                       0.65880                       0.00956                      -0.10634
                       0.65874                       0.00956                      -0.10633
                       0.65865                       0.00955                      -0.10631
                       0.65853                       0.00954                      -0.10629
                       0.65839                       0.00953                      -0.10627
                       0.65824                       0.00951                      -0.10624
                       0.65807                       0.00950                      -0.10621
                       0.65789                       0.00949                      -0.10617
                       0.65771                       0.00949                      -0.10612
                       0.65753                       0.00948                      -0.10608
                       0.65735                       0.00948                      -0.10603
                       0.65716                       0.00949                      -0.10598
                       0.65699                       0.00949                      -0.10593
                       0.65682                       0.00949                      -0.10587
                       0.65665                       0.00950                      -0.10582
                       0.65649                       0.00950                      -0.10577
                       0.65633                       0.00951                      -0.10573
                       0.65618                       0.00951                      -0.10569
                       0.65604                       0.00951                      -0.10565
                       0.65590                       0.00950                      -0.10562
                       0.65576                       0.00949                      -0.10559
                       0.65562                       0.00947                      -0.10557
                       0.65548                       0.00944                      -0.10556
                       0.65534                       0.00941                      -0.10556
                       0.65520                       0.00937                      -0.10557
                       0.65506                       0.00932                      -0.10558
                       0.65491                       0.00926                      -0.10561
                       0.65475                       0.00918                      -0.10564
                       0.65459                       0.00910                      -0.10568
                       0.65442                       0.00901                      -0.10574
                       0.65424                       0.00891                      -0.10580
                       0.65406                       0.00879                      -0.10587
                       0.65386                       0.00866                      -0.10595
                       0.65366                       0.00853                      -0.10604
                       0.65344                       0.00838                      -0.10614
                       0.65322                       0.00823                      -0.10625
                       0.65299                       0.00806                      -0.10636
                       0.65276                       0.00789                      -0.10648
                       0.65253                       0.00771                      -0.10660
                       0.65229                       0.00753                      -0.10673
                       0.65206                       0.00735                      -0.10687
                       0.65184                       0.00716                      -0.10700
                       0.65163                       0.00698                      -0.10714
                       0.65143                       0.00679                      -0.10729
                       0.65126                       0.00662                      -0.10743
                       0.65112                       0.00645                      -0.10757
                       0.65102                       0.00629                      -0.10771
                       0.65096                       0.00615                      -0.10785
                       0.65094                       0.00602                      -0.10798
        </DataArray>
        <DataArray type="Float32" Name="TranslationalAcceleration" NumberOfComponents="3" format="ascii">
                       0.20102                      -1.31103                       1.19676
                       0.33954                      -2.06203                       1.93590
                       0.47651                      -2.82369                       2.66336
                       0.61037                      -3.60634                       3.36770
                       0.74217                      -4.40300                       4.05648
                       0.87292                      -5.20703                       4.73686
                       1.00375                      -6.01110                       5.41673
                       1.13617                      -6.80492                       6.10705
                       1.27084                      -7.58402                       6.81244
                       1.40536                      -8.36454                       7.51528
                       1.54007                      -9.14424                       8.21793
                       1.67565                      -9.91862                       8.92530
                       1.81298                     -10.68206                       9.64351
                       1.95141                     -11.43891                      10.36797
                       2.08987                     -12.19668                      11.09071
                       2.22835                     -12.95552                      11.81159
                       2.36691                     -13.71490                      12.53124
                       2.50556                     -14.47484                      13.24965
                       2.64438                     -15.23472                      13.96748
                       2.78339                     -15.99418                      14.68506
                       2.92258                     -16.75314                      15.40249
                       3.06193                     -17.51175                      16.11968
                       3.20136                     -18.27044                      16.83633
                       3.34082                     -19.02950                      17.55225
                       3.48030                     -19.78889                      18.26757
                       3.61975                     -20.54869                      18.98227
                       3.75913                     -21.30895                      19.69632
                       3.89839                     -22.06970                      20.40974
                       4.03757                     -22.83057                      21.12308
                       4.17661                     -23.59178                      21.83623
                       4.31547                     -24.35327                      22.54931
                       4.45410                     -25.11500                      23.26240
                       4.59248                     -25.87673                      23.97569
                       4.73056                     -26.63831                      24.68927
                       4.86829                     -27.39962                      25.40316
                       5.00565                     -28.16060                      26.11756
                       5.14259                     -28.92123                      26.83259
                       5.27909                     -29.68129                      27.54840
                       5.41512                     -30.44064                      28.26507
                       5.55064                     -31.19907                      28.98270
                       5.68557                     -31.95673                      29.70098
                       5.81986                     -32.71367                      30.41978
                       5.95346                     -33.46990                      31.13897
                       6.08638                     -34.22532                      31.85874
                       6.21862                     -34.97983                      32.57908
                       6.35017                     -35.73337                      33.29994
                       6.48101                     -36.48601                      34.02110
                       6.61114                     -37.23794                      34.74227
                       6.74058                     -37.98900                      35.46332
                       6.87579                     -38.69649                      36.22820
        </DataArray>
        <DataArray type="Float32" Name="OrientationX" NumberOfComponents="3" format="ascii">
                       0.97307                       0.23046                       0.00384
                       0.97291                       0.23115                       0.00304
                       0.97278                       0.23172                      -0.00168
                       0.97332                       0.22920                      -0.01026
                       0.97484                       0.22202                      -0.01987
                       0.97704                       0.21095                      -0.02992
                       0.97963                       0.19683                      -0.03985
                       0.98219                       0.18119                      -0.04964
                       0.98395                       0.16757                      -0.06127
                       0.98485                       0.15672                      -0.07419
                       0.98553                       0.14661                      -0.08509
                       0.98632                       0.13636                      -0.09265
                       0.98715                       0.12601                      -0.09828
                       0.98773                       0.11619                      -0.10437
                       0.98811                       0.10696                      -0.11048
                       0.98841                       0.09788                      -0.11602
                       0.98868                       0.08901                      -0.12082
                       0.98885                       0.08082                      -0.12508
                       0.98881                       0.07409                      -0.12951
                       0.98854                       0.06898                      -0.13431
                       0.98809                       0.06506                      -0.13944
                       0.98763                       0.06143                      -0.14424
                       0.98736                       0.05708                      -0.14783
                       0.98727                       0.05208                      -0.15030
                       0.98734                       0.04640                      -0.15171
                       0.98749                       0.04035                      -0.15243
                       0.98742                       0.03561                      -0.15408
                       0.98709                       0.03252                      -0.15686
                       0.98672                       0.02988                      -0.15965
                       0.98648                       0.02677                      -0.16166
                       0.98644                       0.02268                      -0.16256
                       0.98656                       0.01762                      -0.16248
                       0.98679                       0.01163                      -0.16156
                       0.98709                       0.00478                      -0.16011
                       0.98722                      -0.00190                      -0.15934
                       0.98707                      -0.00797                      -0.16009
                       0.98677                      -0.01453                      -0.16145
                       0.98647                      -0.02143                      -0.16254
                       0.98620                      -0.02838                      -0.16311
                       0.98603                      -0.03519                      -0.16282
                       0.98597                      -0.04133                      -0.16173
                       0.98618                      -0.04586                      -0.15922
                       0.98648                      -0.04908                      -0.15638
                       0.98679                      -0.05139                      -0.15365
                       0.98715                      -0.05318                      -0.15066
                       0.98757                      -0.05437                      -0.14747
                       0.98804                      -0.05478                      -0.14416
                       0.98860                      -0.05436                      -0.14041
                       0.98919                      -0.05269                      -0.13684
                       0.98991                      -0.05081                      -0.13227
        </DataArray>
        <DataArray type="Float32" Name="OrientationY" NumberOfComponents="3" format="ascii">
                       0.15848                      -0.65683                      -0.73720
                       0.15833                      -0.65671                      -0.73734
                       0.15516                      -0.65675                      -0.73798
                       0.14713                      -0.65786                      -0.73862
                       0.13535                      -0.66038                      -0.73863
                       0.12074                      -0.66389                      -0.73802
                       0.10424                      -0.66797                      -0.73685
                       0.08682                      -0.67211                      -0.73535
                       0.06933                      -0.67551                      -0.73408
                       0.05269                      -0.67815                      -0.73304
                       0.03803                      -0.68041                      -0.73184
                       0.02573                      -0.68245                      -0.73048
                       0.01476                      -0.68429                      -0.72906
                       0.00380                      -0.68593                      -0.72765
                      -0.00680                      -0.68737                      -0.72628
                      -0.01689                      -0.68866                      -0.72489
                      -0.02632                      -0.68981                      -0.72351
                      -0.03490                      -0.69077                      -0.72223
                      -0.04263                      -0.69154                      -0.72108
                      -0.04954                      -0.69212                      -0.72008
                      -0.05588                      -0.69260                      -0.71916
                      -0.06179                      -0.69303                      -0.71825
                      -0.06731                      -0.69348                      -0.71733
                      -0.07246                      -0.69392                      -0.71640
                      -0.07730                      -0.69436                      -0.71547
                      -0.08191                      -0.69478                      -0.71455
                      -0.08630                      -0.69514                      -0.71368
                      -0.09037                      -0.69545                      -0.71287
                      -0.09414                      -0.69576                      -0.71208
                      -0.09767                      -0.69609                      -0.71128
                      -0.10107                      -0.69643                      -0.71048
                      -0.10442                      -0.69678                      -0.70965
                      -0.10783                      -0.69713                      -0.70879
                      -0.11145                      -0.69747                      -0.70789
                      -0.11544                      -0.69781                      -0.70692
                      -0.12011                      -0.69815                      -0.70581
                      -0.12556                      -0.69847                      -0.70454
                      -0.13105                      -0.69876                      -0.70325
                      -0.13623                      -0.69904                      -0.70199
                      -0.14069                      -0.69930                      -0.70085
                      -0.14413                      -0.69956                      -0.69988
                      -0.14544                      -0.69990                      -0.69928
                      -0.14563                      -0.70029                      -0.69885
                      -0.14526                      -0.70069                      -0.69852
                      -0.14434                      -0.70109                      -0.69831
                      -0.14289                      -0.70148                      -0.69822
                      -0.14079                      -0.70184                      -0.69828
                      -0.13783                      -0.70219                      -0.69853
                      -0.13411                      -0.70249                      -0.69894
                      -0.12954                      -0.70275                      -0.69954
        </DataArray>
        <DataArray type="Float32" Name="OrientationZ" NumberOfComponents="3" format="ascii">
                      -0.16737                       0.71796                      -0.67567
                      -0.16844                       0.71785                      -0.67552
                      -0.17211                       0.71763                      -0.67482
                      -0.17604                       0.71741                      -0.67404
                      -0.17711                       0.71736                      -0.67381
                      -0.17555                       0.71746                      -0.67412
                      -0.17165                       0.71768                      -0.67488
                      -0.16660                       0.71794                      -0.67587
                      -0.16440                       0.71806                      -0.67629
                      -0.16519                       0.71802                      -0.67613
                      -0.16520                       0.71802                      -0.67614
                      -0.16284                       0.71811                      -0.67662
                      -0.15912                       0.71824                      -0.67736
                      -0.15614                       0.71833                      -0.67796
                      -0.15362                       0.71839                      -0.67847
                      -0.15085                       0.71845                      -0.67903
                      -0.14774                       0.71850                      -0.67965