<?xml version="1.0"?>
<VTKFile type="PolyData" version="0.1" byte_order="LittleEndian">
  <PolyData>
    <Piece NumberOfPoints="     50" NumberOfVerts="  0" NumberOfLines="     49"
           NumberOfStrips="  0" NumberOfPolys="      0">
      <Points>
        <DataArray type="Float32" NumberOfComponents="3" format="ascii">
                      19.47950                       1.68520                     147.20724
                      19.01951                       3.21491                     145.43057
                      18.55831                       4.77095                     143.67850
                      18.09105                       6.37881                     141.97585
                      17.62280                       8.02176                     140.30583
                      17.15831                       9.68388                     138.65249
                      16.70146                      11.34751                     136.99854
                      16.25440                      12.98762                     135.32047
                      15.81625                      14.59334                     133.60865
                      15.37823                      16.20408                     131.90162
                      14.93937                      17.81436                     130.19457
                      14.50252                      19.41320                     128.47662
                      14.07312                      20.98686                     126.73384
                      13.65192                      22.54596                     124.97580
                      13.23845                      24.10882                     123.21945
                      12.83341                      25.67580                     121.46495
                      12.43733                      27.24550                     119.71094
                      12.05125                      28.81796                     117.95727
                      11.67343                      30.39159                     116.20289
                      11.29978                      31.96542                     114.44777
                      10.92759                      33.53917                     112.69208
                      10.55439                      35.11319                     110.93646
                      10.18307                      36.68847                     109.18104
                       9.81743                      38.26577                     107.42565
                       9.45978                      39.84495                     105.66962
                       9.11359                      41.42620                     103.91251
                       8.77894                      43.00963                     102.15438
                       8.44845                      44.59529                     100.39624
                       8.12031                      46.18225                      98.63723
                       7.79483                      47.77104                      96.87747
                       7.47611                      49.36157                      95.11608
                       7.16720                      50.95373                      93.35239
                       6.87179                      52.54702                      91.58549
                       6.59230                      54.14108                      89.81483
                       6.33117                      55.73563                      88.04001
                       6.08328                      57.33051                      86.26132
                       5.84677                      58.92566                      84.47876
                       5.62322                      60.52057                      82.69180
                       5.41319                      62.11487                      80.90012
                       5.21815                      63.70807                      79.10339
                       5.03918                      65.30049                      77.30211
                       4.87585                      66.89223                      75.49669
                       4.72803                      68.48326                      73.68748
                       4.59252                      70.07323                      71.87457
                       4.46896                      71.66178                      70.05813
                       4.35655                      73.24864                      68.23854
                       4.25451                      74.83380                      66.41653
                       4.16105                      76.41751                      64.59312
                       4.07604                      77.99916                      62.76889
                       3.98091                      79.47258                      60.85203
        </DataArray>
      </Points>
      <PointData>
        <DataArray type="Float32" Name="TranslationalVelocity" NumberOfComponents="3" format="ascii">
                       0.15860                       2.24753                       1.92013
                       0.35764                       3.62233                       3.05230
                       0.56030                       4.97901                       4.20385
                       0.77008                       6.29977                       5.39352
                       0.98469                       7.59628                       6.60884
                       1.20191                       8.87965                       7.83798
                       1.41929                      10.16208                       9.06781
                       1.63339                      11.46059                      10.27981
                       1.84269                      12.78237                      11.46596
                       2.05260                      14.10012                      12.65538
                       2.26235                      15.41752                      13.84401
                       2.47042                      16.74219                      15.02376
                       2.67492                      18.08367                      16.18451
                       2.87728                      19.43479                      17.33409
                       3.08002                      20.78314                      18.48603
                       3.28318                      22.12852                      19.64058
                       3.48657                      23.47187                      20.79674
                       3.69019                      24.81320                      21.95454
                       3.89385                      26.15353                      23.11281
                       4.09741                      27.49342                      24.27088
                       4.30086                      28.83313                      25.42855
                       4.50427                      30.17253                      26.58610
                       4.70779                      31.51115                      27.74425
                       4.91155                      32.84862                      28.90353
                       5.11554                      34.18512                      30.06383
                       5.31984                      35.52051                      31.22528
                       5.52447                      36.85476                      32.38793
                       5.72949                      38.18806                      33.55185
                       5.93481                      39.52131                      34.71631
                       6.14053                      40.85436                      35.88170
                       6.34668                      42.18729                      37.04790
                       6.55327                      43.52017                      38.21480
                       6.76029                      44.85316                      39.38200
                       6.96772                      46.18632                      40.54919
                       7.17556                      47.51960                      41.71614
                       7.38383                      48.85343                      42.88272
                       7.59256                      50.18804                      44.04887
                       7.80171                      51.52359                      45.21420
                       8.01127                      52.86022                      46.37841
                       8.22119                      54.19796                      47.54113
                       8.43156                      55.53629                      48.70259
                       8.64240                      56.87496                      49.86289
                       8.85373                      58.21375                      51.02202
                       9.06552                      59.55304                      52.17975
                       9.27774                      60.89278                      53.33589
                       9.49034                      62.23287                      54.49029
                       9.70333                      63.57293                      55.64305
                       9.91671                      64.91256                      56.79446
                      10.13040                      66.25146                      57.94420
                      10.33003                      67.65907                      59.01513
        </DataArray>
        <DataArray type="Float32" Name="RotationalVelocity" NumberOfComponents="3" format="ascii">
                       0.73903                       0.00368                      -0.13440
                       0.73898                       0.00368                      -0.13439
                       0.73890                       0.00368                      -0.13437
                       0.73876                       0.00366                      -0.13435
                       0.73859                       0.00364                      -0.13432
                       0.73838                       0.00362                      -0.13428
                       0.73815                       0.00359                      -0.13423
                       0.73790                       0.00357                      -0.13418
                       0.73764                       0.00356                      -0.13412
                       0.73738                       0.00354                      -0.13406
                       0.73711                       0.00354                      -0.13399
                       0.73684                       0.00353                      -0.13391
                       0.73657                       0.00353                      -0.13384
                       0.73631                       0.00354                      -0.13376
                       0.73606                       0.00355                      -0.13368
                       0.73581                       0.00356                      -0.13360
                       0.73557                       0.00357                      -0.13352
                       0.73534                       0.00357                      -0.13345
                       0.73512                       0.00358                      -0.13338
                       0.73491                       0.00358                      -0.13332
                       0.73470                       0.00358                      -0.13326
                       0.73449                       0.00358                      -0.13321
                       0.73429                       0.00356                      -0.13316
                       0.73409                       0.00354                      -0.13312
                       0.73389                       0.00351                      -0.13309
                       0.73368                       0.00347                      -0.13307
                       0.73347                       0.00342                      -0.13306
                       0.73326                       0.00335                      -0.13306
                       0.73304                       0.00328                      -0.13307
                       0.73281                       0.00319                      -0.13308
                       0.73256                       0.00308                      -0.13311
                       0.73231                       0.00297                      -0.13314
                       0.73205                       0.00284                      -0.13319
                       0.73177                       0.00269                      -0.13324
                       0.73148                       0.00254                      -0.13330
                       0.73118                       0.00237                      -0.13337
                       0.73087                       0.00219                      -0.13345
                       0.73055                       0.00200                      -0.13353
                       0.73023                       0.00180                      -0.13362
                       0.72990                       0.00159                      -0.13372
                       0.72957                       0.00138                      -0.13382
                       0.72925                       0.00117                      -0.13393
                       0.72894                       0.00095                      -0.13404
                       0.72865                       0.00073                      -0.13415
                       0.72838                       0.00052                      -0.13428
                       0.72815                       0.00031                      -0.13440
                       0.72796                       0.00011                      -0.13453
                       0.72783                      -0.00008                      -0.13466
                       0.72776                      -0.00024                      -0.13479
                       0.72774                      -0.00039                      -0.13493
        </DataArray>
        <DataArray type="Float32" Name="TranslationalAcceleration" NumberOfComponents="3" format="ascii">
                       0.29583                      -1.46775                       1.61930
                       0.48647                      -2.33084                       2.63443
                       0.67474                      -3.20858                       3.63612
                       0.85839                      -4.11516                       4.61122
                       1.03897                      -5.04095                       5.56838
                       1.21796                      -5.97678                       6.51581
                       1.39701                      -6.91257                       7.46254
                       1.57836                      -7.83411                       8.42111
                       1.76298                      -8.73525                       9.39680
                       1.94736                      -9.63818                      10.36943
                       2.13203                     -10.53979                      11.34172
                       2.31799                     -11.43390                      12.31927
                       2.50650                     -12.31279                      13.30905
                       2.69668                     -13.18246                      14.30578
                       2.88693                     -14.05324                      15.30033
                       3.07727                     -14.92536                      16.29257
                       3.26784                     -15.79806                      17.28319
                       3.45866                     -16.67141                      18.27219
                       3.64988                     -17.54452                      19.26032
                       3.84159                     -18.41690                      20.24799
                       4.03384                     -19.28841                      21.23538
                       4.22662                     -20.15926                      22.22238
                       4.41989                     -21.03002                      23.20866
                       4.61362                     -21.90113                      24.19396
                       4.80785                     -22.77250                      25.17841
                       5.00256                     -23.64427                      26.16192
                       5.19777                     -24.51648                      27.14447
                       5.39351                     -25.38913                      28.12619
                       5.58990                     -26.26167                      29.10769
                       5.78694                     -27.13438                      30.08887
                       5.98465                     -28.00718                      31.06981
                       6.18305                     -28.87997                      32.05056
                       6.38216                     -29.75246                      33.03124
                       6.58199                     -30.62443                      34.01190
                       6.78254                     -31.49569                      34.99251
                       6.98388                     -32.36612                      35.97336
                       7.18602                     -33.23564                      36.95460
                       7.38899                     -34.10397                      37.93635
                       7.59281                     -34.97089                      38.91870
                       7.79746                     -35.83613                      39.90166
                       8.00287                     -36.69991                      40.88487
                       8.20899                     -37.56231                      41.86815
                       8.41576                     -38.42338                      42.85135
                       8.62322                     -39.28297                      43.83473
                       8.83131                     -40.14101                      44.81826
                       9.03998                     -40.99747                      45.80189
                       9.24913                     -41.85253                      46.78538
                       9.45865                     -42.70653                      47.76844
                       9.66844                     -43.55939                      48.75090
                       9.88755                     -44.35244                      49.78253
        </DataArray>
        <DataArray type="Float32" Name="OrientationX" NumberOfComponents="3" format="ascii">
                       0.96625                       0.25699                      -0.01773
                       0.96607                       0.25761                      -0.01858
                       0.96592                       0.25779                      -0.02327
                       0.96654                       0.25459                      -0.03154
                       0.96827                       0.24663                      -0.04045
                       0.97080                       0.23473                      -0.04948
                       0.97382                       0.21978                      -0.05814
                       0.97686                       0.20328                      -0.06651
                       0.97904                       0.18860                      -0.07681
                       0.98030                       0.17655                      -0.08856
                       0.98132                       0.16535                      -0.09832
                       0.98247                       0.15422                      -0.10471
                       0.98367                       0.14311                      -0.10915
                       0.98460                       0.13247                      -0.11405
                       0.98532                       0.12239                      -0.11900
                       0.98597                       0.11248                      -0.12336
                       0.98656                       0.10281                      -0.12700
                       0.98705                       0.09385                      -0.13011
                       0.98729                       0.08631                      -0.13348
                       0.98726                       0.08033                      -0.13732
                       0.98705                       0.07551                      -0.14156
                       0.98681                       0.07097                      -0.14547
                       0.98678                       0.06579                      -0.14810
                       0.98693                       0.06003                      -0.14955
                       0.98725                       0.05366                      -0.14988
                       0.98765                       0.04696                      -0.14948
                       0.98780                       0.04149                      -0.15008
                       0.98768                       0.03755                      -0.15191
                       0.98752                       0.03404                      -0.15376
                       0.98749                       0.03012                      -0.15479
                       0.98765                       0.02529                      -0.15463
                       0.98797                       0.01956                      -0.15340
                       0.98841                       0.01294                      -0.15126
                       0.98890                       0.00551                      -0.14851
                       0.98922                      -0.00181                      -0.14645
                       0.98926                      -0.00864                      -0.14594
                       0.98915                      -0.01600                      -0.14601
                       0.98903                      -0.02367                      -0.14578
                       0.98893                      -0.03136                      -0.14504
                       0.98889                      -0.03881                      -0.14346
                       0.98894                      -0.04554                      -0.14114
                       0.98921                      -0.05052                      -0.13754
                       0.98954                      -0.05415                      -0.13374
                       0.98986                      -0.05684                      -0.13015
                       0.99023                      -0.05896                      -0.12638
                       0.99063                      -0.06043                      -0.12250
                       0.99106                      -0.06105                      -0.11860
                       0.99157                      -0.06078                      -0.11441
                       0.99211                      -0.05919                      -0.11055
                       0.99274                      -0.05728                      -0.10577
        </DataArray>
        <DataArray type="Float32" Name="OrientationY" NumberOfComponents="3" format="ascii">
                       0.17426                      -0.70278                      -0.68973
                       0.17411                      -0.70268                      -0.68987
                       0.17095                      -0.70286                      -0.69048
                       0.16295                      -0.70426                      -0.69099
                       0.15125                      -0.70711                      -0.69074
                       0.13675                      -0.71098                      -0.68978
                       0.12038                      -0.71544                      -0.68822
                       0.10309                      -0.71995                      -0.68633
                       0.08570                      -0.72374                      -0.68473
                       0.06915                      -0.72676                      -0.68341
                       0.05456                      -0.72933                      -0.68198
                       0.04233                      -0.73161                      -0.68041
                       0.03142                      -0.73365                      -0.67880
                       0.02051                      -0.73548                      -0.67724
                       0.00995                      -0.73709                      -0.67572
                      -0.00010                      -0.73855                      -0.67420
                      -0.00950                      -0.73983                      -0.67272
                      -0.01805                      -0.74092                      -0.67135
                      -0.02575                      -0.74180                      -0.67013
                      -0.03265                      -0.74248                      -0.66907
                      -0.03898                      -0.74304                      -0.66811
                      -0.04487                      -0.74355                      -0.66717
                      -0.05038                      -0.74406                      -0.66621
                      -0.05551                      -0.74456                      -0.66525
                      -0.06035                      -0.74504                      -0.66429
                      -0.06495                      -0.74549                      -0.66334
                      -0.06932                      -0.74589                      -0.66245
                      -0.07339                      -0.74623                      -0.66163
                      -0.07716                      -0.74657                      -0.66082
                      -0.08068                      -0.74691                      -0.66001
                      -0.08407                      -0.74727                      -0.65918
                      -0.08742                      -0.74763                      -0.65834
                      -0.09082                      -0.74799                      -0.65747
                      -0.09443                      -0.74834                      -0.65656
                      -0.09843                      -0.74868                      -0.65558
                      -0.10309                      -0.74901                      -0.65448
                      -0.10855                      -0.74933                      -0.65324
                      -0.11404                      -0.74961                      -0.65198
                      -0.11922                      -0.74987                      -0.65075
                      -0.12369                      -0.75011                      -0.64964
                      -0.12713                      -0.75036                      -0.64868
                      -0.12844                      -0.75069                      -0.64804
                      -0.12862                      -0.75108                      -0.64757
                      -0.12824                      -0.75148                      -0.64718
                      -0.12733                      -0.75188                      -0.64689
                      -0.12586                      -0.75227                      -0.64673
                      -0.12376                      -0.75264                      -0.64670
                      -0.12078                      -0.75300                      -0.64684
                      -0.11706                      -0.75333                      -0.64714
                      -0.11248                      -0.75361                      -0.64762
        </DataArray>
        <DataArray type="Float32" Name="OrientationZ" NumberOfComponents="3" format="ascii">
                      -0.18971                       0.66336                      -0.72385
                      -0.19077                       0.66323                      -0.72369
                      -0.19436                       0.66297                      -0.72298
                      -0.19813                       0.66273                      -0.72218
                      -0.19896                       0.66270                      -0.72197
                      -0.19710                       0.66288                      -0.72232
                      -0.19285                       0.66320                      -0.72317
                      -0.18740                       0.66359                      -0.72424
                      -0.18473                       0.66380                      -0.72474
                      -0.18502                       0.66382                      -0.72465
                      -0.18448                       0.66388                      -0.72473
                      -0.18154                       0.66406                      -0.72531
                      -0.17722                       0.66429                      -0.72616
                      -0.17360                       0.66447                      -0.72687
                      -0.17041                       0.66461                      -0.72749
                      -0.16695                       0.66475                      -0.72817
                      -0.16312                       0.66489                      -0.72891