<?xml version="1.0"?>
<VTKFile type="PolyData" version="0.1" byte_order="LittleEndian">
  <PolyData>
    <Piece NumberOfPoints="     50" NumberOfVerts="  0" NumberOfLines="     49"
           NumberOfStrips="  0" NumberOfPolys="      0">
      <Points>
        <DataArray type="Float32" NumberOfComponents="3" format="ascii">
                      20.32680                      -4.13976                     148.21097
                      20.05103                      -6.33613                     147.31203
                      19.76468                      -8.51707                     146.38179
                      19.45374                     -10.66724                     145.39044
                      19.12935                     -12.79650                     144.35676
                      18.80199                     -14.91424                     143.29864
                      18.48190                     -17.03083                     142.23620
                      18.18014                     -19.16075                     141.19845
                      17.89967                     -21.31014                     140.19812
                      17.61776                     -23.45550                     139.18991
                      17.33543                     -25.59998                     138.18034
                      17.05955                     -27.75020                     137.18195
                      16.80056                     -29.91453                     136.21004
                      16.55556                     -32.08688                     135.25205
                      16.31774                     -34.25658                     134.28652
                      16.08775                     -36.42345                     133.31300
                      15.86668                     -38.58830                     132.33306
                      15.65561                     -40.75113                     131.34657
                      15.45339                     -42.91278                     130.35570
                      15.25626                     -45.07376                     129.36224
                      15.06165                     -47.23432                     128.36699
                      14.86701                     -49.39442                     127.37000
                      14.67496                     -51.55372                     126.36974
                      14.48911                     -53.71192                     125.36481
                      14.31187                     -55.86918                     124.35505
                      14.14665                     -58.02536                     123.33971
                      13.99349                     -60.18039                     122.31868
                      13.84503                     -62.33462                     121.29306
                      13.69986                     -64.48892                     120.26430
                      13.55814                     -66.64325                     119.23175
                      13.42401                     -68.79764                     118.19486
                      13.30055                     -70.95209                     117.15323
                      13.19158                     -73.10661                     116.10681
                      13.09956                     -75.26114                     115.05550
                      13.02694                     -77.41546                     113.99917
                      12.96871                     -79.57017                     112.93883
                      12.92305                     -81.72553                     111.87486
                      12.89164                     -83.88161                     110.80752
                      12.87512                     -86.03845                     109.73709
                      12.87500                     -88.19595                     108.66385
                      12.89213                     -90.35352                     107.58716
                      12.92596                     -92.51086                     106.50697
                      12.97622                     -94.66767                     105.42332
                      13.03981                     -96.82442                     104.33727
                      13.11635                     -98.98097                     103.24935
                      13.20498                    -101.13713                     102.16008
                      13.30472                    -103.29249                     101.06974
                      13.41353                    -105.44663                      99.97854
                      13.53121                    -107.59906                      98.88737
                      13.67588                    -109.81299                      97.92220
        </DataArray>
      </Points>
      <PointData>
        <DataArray type="Float32" Name="TranslationalVelocity" NumberOfComponents="3" format="ascii">
                      -0.28008                       1.10139                      -2.57415
                      -0.56170                       1.76997                      -4.12130
                      -0.84151                       2.46193                      -5.65745
                      -1.11769                       3.20000                      -7.17164
                      -1.39144                       3.96951                      -8.67083
                      -1.66387                       4.75647                     -10.16162
                      -1.93622                       5.54540                     -11.65133
                      -2.21021                       6.31444                     -13.15019
                      -2.48659                       7.05425                     -14.66248
                      -2.76260                       7.79963                     -16.17155
                      -3.03866                       8.54583                     -17.67960
                      -3.31554                       9.28318                     -19.19132
                      -3.59428                       9.99959                     -20.71264
                      -3.87416                      10.70428                     -22.23925
                      -4.15396                      11.41321                     -23.76363
                      -4.43369                      12.12663                     -25.28567
                      -4.71345                      12.84328                     -26.80594
                      -4.99325                      13.56311                     -28.32446
                      -5.27322                      14.28477                     -29.84183
                      -5.55342                      15.00746                     -31.35839
                      -5.83388                      15.73096                     -32.87432
                      -6.11462                      16.45556                     -34.38957
                      -6.39560                      17.18201                     -35.90394
                      -6.67680                      17.91082                     -37.41722
                      -6.95825                      18.64181                     -38.92955
                      -7.23994                      19.37505                     -40.44084
                      -7.52187                      20.11062                     -41.95107
                      -7.80409                      20.84868                     -43.46040
                      -8.08669                      21.58839                     -44.96945
                      -8.36969                      22.33019                     -46.47818
                      -8.65308                      23.07392                     -47.98661
                      -8.93689                      23.81944                     -49.49475
                      -9.22110                      24.56632                     -51.00264
                      -9.50571                      25.31427                     -52.51022
                      -9.79070                      26.06307                     -54.01736
                     -10.07612                      26.81263                     -55.52441
                     -10.36203                      27.56293                     -57.03156
                     -10.64841                      28.31355                     -58.53884
                     -10.93527                      29.06421                     -60.04629
                     -11.22260                      29.81451                     -61.55384
                     -11.51030                      30.56477                     -63.06110
                     -11.79834                      31.31511                     -64.56786
                     -12.08666                      32.06552                     -66.07393
                     -12.37531                      32.81568                     -67.57964
                     -12.66424                      33.56527                     -69.08492
                     -12.95340                      34.31405                     -70.58969
                     -13.24273                      35.06198                     -72.09371
                     -13.53213                      35.80919                     -73.59674
                     -13.82151                      36.55514                     -75.09854
                     -14.11815                      37.20961                     -76.64345
        </DataArray>
        <DataArray type="Float32" Name="RotationalVelocity" NumberOfComponents="3" format="ascii">
                       0.70498                       0.00448                      -0.12639
                       0.70496                       0.00448                      -0.12639
                       0.70491                       0.00448                      -0.12638
                       0.70482                       0.00449                      -0.12638
                       0.70471                       0.00451                      -0.12638
                       0.70458                       0.00453                      -0.12638
                       0.70443                       0.00456                      -0.12640
                       0.70427                       0.00460                      -0.12642
                       0.70410                       0.00463                      -0.12645
                       0.70392                       0.00468                      -0.12649
                       0.70374                       0.00473                      -0.12653
                       0.70355                       0.00478                      -0.12659
                       0.70337                       0.00483                      -0.12665
                       0.70319                       0.00489                      -0.12672
                       0.70301                       0.00495                      -0.12680
                       0.70284                       0.00502                      -0.12689
                       0.70267                       0.00509                      -0.12698
                       0.70251                       0.00515                      -0.12708
                       0.70235                       0.00522                      -0.12718
                       0.70219                       0.00529                      -0.12729
                       0.70204                       0.00537                      -0.12740
                       0.70189                       0.00544                      -0.12752
                       0.70174                       0.00552                      -0.12764
                       0.70159                       0.00559                      -0.12776
                       0.70144                       0.00567                      -0.12788
                       0.70130                       0.00575                      -0.12801
                       0.70115                       0.00582                      -0.12813
                       0.70100                       0.00590                      -0.12826
                       0.70084                       0.00598                      -0.12839
                       0.70069                       0.00606                      -0.12852
                       0.70052                       0.00614                      -0.12864
                       0.70036                       0.00622                      -0.12877
                       0.70019                       0.00630                      -0.12890
                       0.70001                       0.00639                      -0.12902
                       0.69983                       0.00647                      -0.12914
                       0.69964                       0.00655                      -0.12926
                       0.69946                       0.00663                      -0.12938
                       0.69927                       0.00671                      -0.12950
                       0.69907                       0.00679                      -0.12961
                       0.69888                       0.00687                      -0.12973
                       0.69870                       0.00694                      -0.12983
                       0.69851                       0.00702                      -0.12994
                       0.69834                       0.00709                      -0.13004
                       0.69817                       0.00715                      -0.13013
                       0.69803                       0.00721                      -0.13022
                       0.69790                       0.00727                      -0.13030
                       0.69780                       0.00732                      -0.13037
                       0.69772                       0.00736                      -0.13044
                       0.69769                       0.00739                      -0.13050
                       0.69769                       0.00741                      -0.13055
        </DataArray>
        <DataArray type="Float32" Name="TranslationalAcceleration" NumberOfComponents="3" format="ascii">
                       0.12907                       1.84883                       0.85838
                       0.20569                       2.97573                       1.32979
                       0.28533                       4.09457                       1.81775
                       0.37093                       5.19731                       2.33839
                       0.46059                       6.28888                       2.88141
                       0.55247                       7.37399                       3.43701
                       0.64457                       8.45788                       3.99429
                       0.73403                       9.54793                       4.53794
                       0.81963                      10.64726                       5.06141
                       0.90583                      11.74375                       5.58922
                       0.99198                      12.83900                       6.11805
                       1.07681                      13.93643                       6.64110
                       1.15873                      15.04037                       7.14991
                       1.23890                      16.14772                       7.65096
                       1.31936                      17.25299                       8.15546
                       1.40011                      18.35611                       8.66355
                       1.48097                      19.45752                       9.17434
                       1.56193                      20.55725                       9.68779
                       1.64278                      21.65576                      10.20292
                       1.72341                      22.75330                      10.71919
                       1.80379                      23.85004                      11.23640
                       1.88395                      24.94596                      11.75476
                       1.96396                      26.04091                      12.27479
                       2.04390                      27.13474                      12.79683
                       2.12374                      28.22755                      13.32074
                       2.20349                      29.31926                      13.84656
                       2.28316                      30.40986                      14.37434
                       2.36277                      31.49947                      14.90420
                       2.44222                      32.58854                      15.43557
                       2.52155                      33.67704                      15.96875
                       2.60076                      34.76494                      16.50363
                       2.67983                      35.85224                      17.04013
                       2.75872                      36.93892                      17.57792
                       2.83740                      38.02492                      18.11681
                       2.91584                      39.11011                      18.65665
                       2.99404                      40.19474                      19.19740
                       3.07202                      41.27894                      19.73904
                       3.14971                      42.36272                      20.28130
                       3.22710                      43.44609                      20.82396
                       3.30415                      44.52898                      21.36675
                       3.38091                      45.61111                      21.90988
                       3.45742                      46.69232                      22.45342
                       3.53368                      47.77249                      22.99733
                       3.60969                      48.85189                      23.54138
                       3.68541                      49.93053                      24.08531
                       3.76084                      51.00838                      24.62889
                       3.83601                      52.08535                      25.17204
                       3.91094                      53.16136                      25.71479
                       3.98561                      54.23634                      26.25664
                       4.04805                      55.34345                      26.73519
        </DataArray>
        <DataArray type="Float32" Name="OrientationX" NumberOfComponents="3" format="ascii">
                       0.89714                       0.07459                      -0.43540
                       0.89707                       0.07361                      -0.43572
                       0.89795                       0.06918                      -0.43463
                       0.90087                       0.06257                      -0.42956
                       0.90572                       0.05696                      -0.42004
                       0.91195                       0.05256                      -0.40692
                       0.91903                       0.04951                      -0.39107
                       0.92630                       0.04721                      -0.37383
                       0.93290                       0.04243                      -0.35763
                       0.93854                       0.03539                      -0.34336
                       0.94338                       0.02996                      -0.33035
                       0.94760                       0.02772                      -0.31826
                       0.95142                       0.02734                      -0.30667
                       0.95502                       0.02635                      -0.29535
                       0.95834                       0.02512                      -0.28451
                       0.96143                       0.02439                      -0.27395
                       0.96428                       0.02427                      -0.26379
                       0.96679                       0.02444                      -0.25440
                       0.96891                       0.02391                      -0.24625
                       0.97066                       0.02247                      -0.23941
                       0.97214                       0.02028                      -0.23354
                       0.97348                       0.01833                      -0.22803
                       0.97482                       0.01778                      -0.22226
                       0.97616                       0.01855                      -0.21627
                       0.97749                       0.02056                      -0.21000
                       0.97877                       0.02336                      -0.20361
                       0.97987                       0.02482                      -0.19810
                       0.98075                       0.02465                      -0.19372
                       0.98153                       0.02430                      -0.18974
                       0.98231                       0.02487                      -0.18560
                       0.98313                       0.02683                      -0.18092
                       0.98399                       0.03005                      -0.17568
                       0.98487                       0.03438                      -0.16984
                       0.98577                       0.03950                      -0.16337
                       0.98665                       0.04388                      -0.15683
                       0.98753                       0.04658                      -0.15035
                       0.98849                       0.04883                      -0.14321
                       0.98939                       0.05141                      -0.13586
                       0.99020                       0.05446                      -0.12862
                       0.99084                       0.05823                      -0.12181
                       0.99129                       0.06249                      -0.11590
                       0.99141                       0.06752                      -0.11199
                       0.99136                       0.07237                      -0.10944
                       0.99121                       0.07675                      -0.10773
                       0.99098                       0.08113                      -0.10664
                       0.99067                       0.08542                      -0.10621
                       0.99027                       0.08948                      -0.10660
                       0.98974                       0.09359                      -0.10794
                       0.98914                       0.09700                      -0.11046
                       0.98837                       0.10121                      -0.11354
        </DataArray>
        <DataArray type="Float32" Name="OrientationY" NumberOfComponents="3" format="ascii">
                       0.42499                      -0.41461                       0.80466
                       0.42484                      -0.41491                       0.80458
                       0.42192                      -0.41621                       0.80545
                       0.41448                      -0.41803                       0.80837
                       0.40350                      -0.41946                       0.81317
                       0.38981                      -0.42049                       0.81929
                       0.37425                      -0.42118                       0.82616
                       0.35773                      -0.42175                       0.83316
                       0.34108                      -0.42286                       0.83956
                       0.32518                      -0.42434                       0.84510
                       0.31109                      -0.42552                       0.84980
                       0.29919                      -0.42625                       0.85370
                       0.28853                      -0.42678                       0.85710
                       0.27785                      -0.42739                       0.86031
                       0.26750                      -0.42804                       0.86326
                       0.25763                      -0.42863                       0.86597
                       0.24836                      -0.42918                       0.86840
                       0.23992                      -0.42971                       0.87051
                       0.23231                      -0.43029                       0.87229
                       0.22549                      -0.43091                       0.87377
                       0.21922                      -0.43154                       0.87505
                       0.21338                      -0.43212                       0.87621
                       0.20791                      -0.43260                       0.87728
                       0.20281                      -0.43302                       0.87827
                       0.19800                      -0.43340                       0.87918
                       0.19342                      -0.43376                       0.88003
                       0.18906                      -0.43415                       0.88078
                       0.18502                      -0.43458                       0.88142
                       0.18127                      -0.43499                       0.88200
                       0.17777                      -0.43537                       0.88253
                       0.17439                      -0.43573                       0.88302
                       0.17105                      -0.43609                       0.88349
                       0.16768                      -0.43647                       0.88396
                       0.16408                      -0.43687                       0.88443
                       0.16011                      -0.43730                       0.88495
                       0.15547                      -0.43777                       0.88554
                       0.15005                      -0.43827                       0.88623
                       0.14458                      -0.43878                       0.88689
                       0.13943                      -0.43929                       0.88746
                       0.13500                      -0.43977                       0.88791
                       0.13160                      -0.44020                       0.88820
                       0.13034                      -0.44049                       0.88825
                       0.13022                      -0.44067                       0.88817
                       0.13065                      -0.44078                       0.88806
                       0.13164                      -0.44081                       0.88789
                       0.13317                      -0.44077                       0.88769
                       0.13534                      -0.44063                       0.88743
                       0.13838                      -0.44036                       0.88709
                       0.14217                      -0.43994                       0.88670
                       0.14680                      -0.43941                       0.88621
        </DataArray>
        <DataArray type="Float32" Name="OrientationZ" NumberOfComponents="3" format="ascii">
                      -0.12050                      -0.90694                      -0.40367
                      -0.12156                      -0.90688                      -0.40348
                      -0.12518                      -0.90663                      -0.40292
                      -0.12899                      -0.90628                      -0.40252
                      -0.12987                      -0.90599                      -0.40289
                      -0.12804                      -0.90577                      -0.40395
                      -0.12380                      -0.90562                      -0.40561
                      -0.11833                      -0.90548                      -0.40756
                      -0.11561                      -0.90520                      -0.40896
                      -0.11579                      -0.90481                      -0.40977
                      -0.11511                      -0.90445                      -0.41075
                      -0.11199                      -0.90418                      -0.41221
                      -0.10744                      -0.90394                      -0.41393
                      -0.10356                      -0.90368                      -0.41549
                      -0.10009                      -0.90341                      -0.41693
                      -0.09631                      -0.90315                      -0.41839
                      -0.09213                      -0.90289                      -0.41987