<?xml version="1.0"?>
<VTKFile type="PolyData" version="0.1" byte_order="LittleEndian">
  <PolyData>
    <Piece NumberOfPoints="     50" NumberOfVerts="  0" NumberOfLines="     49"
           NumberOfStrips="  0" NumberOfPolys="      0">
      <Points>
        <DataArray type="Float32" NumberOfComponents="3" format="ascii">
                      19.05851                       2.99687                     152.07806
                      19.12001                       5.12032                     153.17136
                      19.18218                       7.22623                     154.29610
                      19.24177                       9.29722                     155.48353
                      19.30259                      11.34491                     156.71268
                      19.36817                      13.38031                     157.96365
                      19.44103                      15.41546                     159.21464
                      19.52146                      17.46704                     160.43554
                      19.60768                      19.54202                     161.61370
                      19.69361                      21.61360                     162.79772
                      19.77781                      23.68535                     163.98132
                      19.86231                      25.76478                     165.15086
                      19.95152                      27.86132                     166.28896
                      20.04692                      29.96800                     167.40801
                      20.14930                      32.07271                     168.52987
                      20.25934                      34.17527                     169.65481
                      20.37742                      36.27657                     170.78113
                      20.50454                      38.37661                     171.90867
                      20.63878                      40.47632                     173.03592
                      20.77595                      42.57618                     174.16260
                      20.91326                      44.67638                     175.28888
                      21.04826                      46.77679                     176.41565
                      21.18386                      48.87701                     177.54346
                      21.32388                      50.97678                     178.67245
                      21.47059                      53.07631                     179.80199
                      21.62741                      55.17554                     180.93166
                      21.79435                      57.27442                     182.06157
                      21.96406                      59.37316                     183.19315
                      22.13461                      61.47265                     184.32554
                      22.30632                      63.57284                     185.45927
                      22.48322                      65.67391                     186.59343
                      22.66829                      67.77599                     187.72732
                      22.86509                      69.87930                     188.85971
                      23.07592                      71.98393                     189.98980
                      23.30310                      74.08983                     191.11688
                      23.54152                      76.19751                     192.24165
                      23.78930                      78.30722                     193.36433
                      24.04794                      80.41917                     194.48410
                      24.31791                      82.53349                     195.60048
                      24.60059                      84.65020                     196.71273
                      24.89704                      86.76875                     197.82115
                      25.20684                      88.88888                     198.92603
                      25.52986                      91.01028                     200.02746
                      25.86292                      93.13332                     201.12559
                      26.20570                      95.25780                     202.22019
                      26.55745                      97.38348                     203.31121
                      26.91745                      99.50980                     204.39895
                      27.28405                     101.63612                     205.48414
                      27.65718                     103.76181                     206.56636
                      28.01062                     105.95400                     207.52380
        </DataArray>
      </Points>
      <PointData>
        <DataArray type="Float32" Name="TranslationalVelocity" NumberOfComponents="3" format="ascii">
                       0.65637                      -1.35856                       2.26266
                       0.91449                      -2.06698                       3.62407
                       1.17061                      -2.79567                       4.97429
                       1.42281                      -3.56434                       6.30226
                       1.67250                      -4.36003                       7.61547
                       1.92103                      -5.17045                       8.92100
                       2.16984                      -5.98196                      10.22661
                       2.42090                      -6.77526                      11.54300
                       2.67509                      -7.54204                      12.87468
                       2.92935                      -8.31275                      14.20448
                       3.18416                      -9.08318                      15.53468
                       3.44042                      -9.84482                      16.87010
                       3.69925                     -10.58701                      18.21679
                       3.95988                     -11.31789                      19.57024
                       4.22095                     -12.05160                      20.92267
                       4.48247                     -12.78838                      22.27393
                       4.74455                     -13.52719                      23.62457
                       5.00724                     -14.26805                      24.97458
                       5.27066                     -15.00975                      26.32455
                       5.53488                     -15.75159                      27.67476
                       5.79996                     -16.49332                      29.02537
                       6.06591                     -17.23519                      30.37626
                       6.33270                     -17.97794                      31.72719
                       6.60033                     -18.72209                      33.07794
                       6.86883                     -19.46755                      34.42863
                       7.13821                     -20.21445                      35.77920
                       7.40849                     -20.96290                      37.12961
                       7.67973                     -21.71287                      38.48002
                       7.95207                     -22.46357                      39.83105
                       8.22553                     -23.21538                      41.18264
                       8.50015                     -23.96823                      42.53491
                       8.77596                     -24.72204                      43.88791
                       9.05301                     -25.47650                      45.24177
                       9.33132                     -26.23139                      46.59654
                       9.61090                     -26.98657                      47.95216
                       9.89184                     -27.74184                      49.30900
                      10.17418                     -28.49712                      50.66725
                      10.45796                     -29.25208                      52.02702
                      10.74319                     -30.00647                      53.38839
                      11.02987                     -30.76002                      54.75137
                      11.31792                     -31.51306                      56.11556
                      11.60729                     -32.26573                      57.48081
                      11.89792                     -33.01810                      58.84689
                      12.18981                     -33.76984                      60.21405
                      12.48289                     -34.52078                      61.58214
                      12.77705                     -35.27076                      62.95098
                      13.07214                     -36.01989                      64.32017
                      13.36799                     -36.76843                      65.68925
                      13.66438                     -37.51606                      67.05775
                      13.96891                     -38.18064                      68.46922
        </DataArray>
        <DataArray type="Float32" Name="RotationalVelocity" NumberOfComponents="3" format="ascii">
                       0.64120                       0.00278                      -0.12013
                       0.64122                       0.00278                      -0.12013
                       0.64127                       0.00279                      -0.12015
                       0.64135                       0.00282                      -0.12020
                       0.64146                       0.00286                      -0.12028
                       0.64158                       0.00292                      -0.12039
                       0.64171                       0.00298                      -0.12051
                       0.64186                       0.00306                      -0.12066
                       0.64200                       0.00315                      -0.12082
                       0.64215                       0.00325                      -0.12101
                       0.64230                       0.00336                      -0.12121
                       0.64244                       0.00348                      -0.12142
                       0.64258                       0.00360                      -0.12165
                       0.64272                       0.00373                      -0.12189
                       0.64284                       0.00387                      -0.12214
                       0.64296                       0.00402                      -0.12240
                       0.64308                       0.00416                      -0.12267
                       0.64318                       0.00432                      -0.12295
                       0.64328                       0.00447                      -0.12323
                       0.64337                       0.00464                      -0.12353
                       0.64345                       0.00480                      -0.12383
                       0.64353                       0.00498                      -0.12414
                       0.64360                       0.00515                      -0.12446
                       0.64367                       0.00533                      -0.12478
                       0.64374                       0.00551                      -0.12511
                       0.64381                       0.00570                      -0.12545
                       0.64387                       0.00589                      -0.12580
                       0.64393                       0.00609                      -0.12616
                       0.64400                       0.00629                      -0.12652
                       0.64407                       0.00650                      -0.12689
                       0.64413                       0.00670                      -0.12726
                       0.64421                       0.00692                      -0.12765
                       0.64428                       0.00713                      -0.12804
                       0.64436                       0.00735                      -0.12843
                       0.64444                       0.00757                      -0.12883
                       0.64452                       0.00779                      -0.12923
                       0.64460                       0.00802                      -0.12963
                       0.64469                       0.00824                      -0.13004
                       0.64477                       0.00846                      -0.13044
                       0.64486                       0.00869                      -0.13084
                       0.64494                       0.00890                      -0.13124
                       0.64502                       0.00912                      -0.13162
                       0.64509                       0.00932                      -0.13199
                       0.64516                       0.00952                      -0.13235
                       0.64522                       0.00970                      -0.13268
                       0.64526                       0.00988                      -0.13299
                       0.64529                       0.01003                      -0.13327
                       0.64530                       0.01017                      -0.13352
                       0.64528                       0.01028                      -0.13372
                       0.64524                       0.01038                      -0.13390
        </DataArray>
        <DataArray type="Float32" Name="TranslationalAcceleration" NumberOfComponents="3" format="ascii">
                      -0.32407                      -1.48730                      -0.80633
                      -0.40780                      -2.39695                      -1.25007
                      -0.49399                      -3.29945                      -1.70684
                      -0.58504                      -4.18773                      -2.18932
                      -0.67936                      -5.06673                      -2.68913
                      -0.77542                      -5.94112                      -3.19830
                      -0.87155                      -6.81598                      -3.70801
                      -0.96535                      -7.69829                      -4.20576
                      -1.05577                      -8.59098                      -4.68616
                      -1.14653                      -9.48296                      -5.16889
                      -1.23710                     -10.37573                      -5.65124
                      -1.32640                     -11.27240                      -6.12767
                      -1.41308                     -12.17686                      -6.59129
                      -1.49813                     -13.08620                      -7.04735
                      -1.58329                     -13.99538                      -7.50503
                      -1.66859                     -14.90430                      -7.96450
                      -1.75389                     -15.81331                      -8.42509
                      -1.83919                     -16.72238                      -8.88684
                      -1.92435                     -17.63188                      -9.34896
                      -2.00926                     -18.54199                      -9.81102
                      -2.09392                     -19.45280                     -10.27286
                      -2.17835                     -20.36423                     -10.73468
                      -2.26266                     -21.27611                     -11.19692
                      -2.34693                     -22.18830                     -11.65997
                      -2.43115                     -23.10088                     -12.12374
                      -2.51536                     -24.01379                     -12.58835
                      -2.59958                     -24.92703                     -13.05385
                      -2.68384                     -25.84071                     -13.52024
                      -2.76804                     -26.75523                     -13.98699
                      -2.85225                     -27.67059                     -14.45436
                      -2.93648                     -28.58686                     -14.92230
                      -3.02073                     -29.50409                     -15.39075
                      -3.10500                     -30.42237                     -15.85950
                      -3.18927                     -31.34175                     -16.32842
                      -3.27354                     -32.26220                     -16.79742
                      -3.35780                     -33.18398                     -17.26635
                      -3.44206                     -34.10723                     -17.73515
                      -3.52631                     -35.03201                     -18.20362
                      -3.61051                     -35.95839                     -18.67158
                      -3.69465                     -36.88635                     -19.13886
                      -3.77879                     -37.81564                     -19.60569
                      -3.86298                     -38.74614                     -20.07216
                      -3.94724                     -39.67767                     -20.53832
                      -4.03153                     -40.61038                     -21.00398
                      -4.11585                     -41.54412                     -21.46903
                      -4.20019                     -42.47870                     -21.93340
                      -4.28459                     -43.41379                     -22.39721
                      -4.36908                     -44.34900                     -22.86064
                      -4.45364                     -45.28392                     -23.32355
                      -4.52674                     -46.24606                     -23.73223
        </DataArray>
        <DataArray type="Float32" Name="OrientationX" NumberOfComponents="3" format="ascii">
                       0.99173                      -0.08675                       0.09456
                       0.99178                      -0.08577                       0.09497
                       0.99226                      -0.08116                       0.09402
                       0.99330                      -0.07395                       0.08886
                       0.99461                      -0.06731                       0.07885
                       0.99599                      -0.06153                       0.06494
                       0.99722                      -0.05685                       0.04814
                       0.99816                      -0.05275                       0.02995
                       0.99884                      -0.04621                       0.01317
                       0.99929                      -0.03753                      -0.00131
                       0.99943                      -0.03051                      -0.01443
                       0.99929                      -0.02671                      -0.02665
                       0.99896                      -0.02477                      -0.03837
                       0.99852                      -0.02222                      -0.04971
                       0.99798                      -0.01945                      -0.06047
                       0.99733                      -0.01717                      -0.07091
                       0.99660                      -0.01551                      -0.08093
                       0.99583                      -0.01417                      -0.09012
                       0.99512                      -0.01220                      -0.09796
                       0.99449                      -0.00938                      -0.10437
                       0.99394                      -0.00585                      -0.10975
                       0.99339                      -0.00257                      -0.11476
                       0.99276                      -0.00067                      -0.12007
                       0.99207                      -0.00005                      -0.12568
                       0.99130                      -0.00065                      -0.13161
                       0.99048                      -0.00202                      -0.13767
                       0.98975                      -0.00210                      -0.14277
                       0.98919                      -0.00059                      -0.14665
                       0.98867                       0.00107                      -0.15011
                       0.98810                       0.00184                      -0.15377
                       0.98743                       0.00125                      -0.15802
                       0.98664                      -0.00059                      -0.16290
                       0.98571                      -0.00350                      -0.16840
                       0.98462                      -0.00717                      -0.17455
                       0.98348                      -0.01013                      -0.18072
                       0.98234                      -0.01143                      -0.18677
                       0.98103                      -0.01226                      -0.19345
                       0.97963                      -0.01345                      -0.20035
                       0.97819                      -0.01513                      -0.20714
                       0.97678                      -0.01760                      -0.21353
                       0.97550                      -0.02063                      -0.21905
                       0.97459                      -0.02456                      -0.22263
                       0.97397                      -0.02841                      -0.22488
                       0.97353                      -0.03187                      -0.22631
                       0.97321                      -0.03542                      -0.22716
                       0.97302                      -0.03897                      -0.22739
                       0.97301                      -0.04240                      -0.22684
                       0.97318                      -0.04599                      -0.22538
                       0.97363                      -0.04902                      -0.22280
                       0.97413                      -0.05294                      -0.21970
        </DataArray>
        <DataArray type="Float32" Name="OrientationY" NumberOfComponents="3" format="ascii">
                       0.12469                       0.47731                      -0.86985
                       0.12458                       0.47748                      -0.86976
                       0.12154                       0.47854                      -0.86961
                       0.11356                       0.48003                      -0.86987
                       0.10159                       0.48107                      -0.87078
                       0.08662                       0.48166                      -0.87206
                       0.06963                       0.48185                      -0.87348
                       0.05171                       0.48186                      -0.87472
                       0.03385                       0.48230                      -0.87535
                       0.01700                       0.48306                      -0.87543
                       0.00212                       0.48347                      -0.87536
                      -0.01042                       0.48343                      -0.87532
                      -0.02164                       0.48317                      -0.87526
                      -0.03281                       0.48300                      -0.87500
                      -0.04359                       0.48286                      -0.87461
                      -0.05385                       0.48268                      -0.87414
                      -0.06343                       0.48246                      -0.87362
                      -0.07214                       0.48225                      -0.87306
                      -0.07997                       0.48209                      -0.87246
                      -0.08696                       0.48200                      -0.87185
                      -0.09336                       0.48193                      -0.87122
                      -0.09933                       0.48182                      -0.87062
                      -0.10491                       0.48163                      -0.87007
                      -0.11014                       0.48138                      -0.86957
                      -0.11507                       0.48108                      -0.86909
                      -0.11976                       0.48076                      -0.86863
                      -0.12421                       0.48048                      -0.86817
                      -0.12835                       0.48021                      -0.86771
                      -0.13220                       0.47991                      -0.86730
                      -0.13581                       0.47956                      -0.86694
                      -0.13929                       0.47918                      -0.86660
                      -0.14274                       0.47876                      -0.86627
                      -0.14624                       0.47832                      -0.86592
                      -0.14995                       0.47788                      -0.86553
                      -0.15404                       0.47742                      -0.86507
                      -0.15881                       0.47695                      -0.86447
                      -0.16435                       0.47646                      -0.86370
                      -0.16994                       0.47595                      -0.86290
                      -0.17521                       0.47544                      -0.86213
                      -0.17976                       0.47493                      -0.86147
                      -0.18331                       0.47441                      -0.86101
                      -0.18474                       0.47386                      -0.86100
                      -0.18505                       0.47330                      -0.86125
                      -0.18481                       0.47273                      -0.86161
                      -0.18403                       0.47220                      -0.86207
                      -0.18270                       0.47170                      -0.86262
                      -0.18072                       0.47126                      -0.86328
                      -0.17787                       0.47087                      -0.86408
                      -0.17425                       0.47055                      -0.86500
                      -0.16976                       0.47030                      -0.86603
        </DataArray>
        <DataArray type="Float32" Name="OrientationZ" NumberOfComponents="3" format="ascii">
                       0.03032                       0.87444                       0.48418
                       0.02926                       0.87445                       0.48424
                       0.02558                       0.87431                       0.48470
                       0.02167                       0.87413                       0.48520
                       0.02068                       0.87409                       0.48532
                       0.02238                       0.87419                       0.48506
                       0.02646                       0.87441                       0.48447
                       0.03171                       0.87466                       0.48370
                       0.03410                       0.87478                       0.48331
                       0.03349                       0.87479                       0.48335
                       0.03368                       0.87483                       0.48326
                       0.03626                       0.87498                       0.48280
                       0.04022                       0.87517                       0.48213
                       0.04345                       0.87534                       0.48156
                       0.04621                       0.87548                       0.48104
                       0.04923                       0.87563                       0.48047
                       0.05260                       0.87578                       0.47984