<?xml version="1.0"?>
<VTKFile type="PolyData" version="0.1" byte_order="LittleEndian">
  <PolyData>
    <Piece NumberOfPoints="     50" NumberOfVerts="  0" NumberOfLines="     49"
           NumberOfStrips="  0" NumberOfPolys="      0">
      <Points>
        <DataArray type="Float32" NumberOfComponents="3" format="ascii">
                      14.47015                      -4.38547                     149.03155
                      14.26132                      -6.71142                     148.52707
                      14.04067                      -9.02790                     147.98942
                      13.79297                     -11.32538                     147.38702
                      13.53008                     -13.60999                     146.73977
                      13.26319                     -15.88755                     146.06660
                      13.00336                     -18.16447                     145.38885
                      12.76276                     -20.44967                     144.73725
                      12.54486                     -22.74691                     144.12531
                      12.32506                     -25.04159                     143.50502
                      12.10463                     -27.33566                     142.88335
                      11.89093                     -29.63325                     142.27356
                      11.69503                     -31.93964                     141.69188
                      11.51353                     -34.25106                     141.12498
                      11.33871                     -36.56092                     140.55009
                      11.17123                     -38.86911                     139.96672
                      11.01220                     -41.17611                     139.37653
                      10.86269                     -43.48191                     138.77936
                      10.72160                     -45.78701                     138.17754
                      10.58522                     -48.09174                     137.57300
                      10.45098                     -50.39627                     136.96666
                      10.31630                     -52.70066                     136.35864
                      10.18374                     -55.00474                     135.74730
                      10.05682                     -57.30833                     135.13113
                       9.93794                     -59.61154                     134.50992
                       9.83043                     -61.91425                     133.88283
                       9.73430                     -64.21641                     133.24973
                       9.64221                     -66.51842                     132.61200
                       9.55275                     -68.82092                     131.97125
                       9.46604                     -71.12399                     131.32682
                       9.38616                     -73.42761                     130.67809
                       9.31615                     -75.73174                     130.02459
                       9.25976                     -78.03631                     129.36614
                       9.21943                     -80.34119                     128.70259
                       9.19755                     -82.64613                     128.03371
                       9.18911                     -84.95170                     127.36073
                       9.19228                     -87.25816                     126.68413
                       9.20874                     -89.56548                     126.00412
                       9.23906                     -91.87366                     125.32098
                       9.28477                     -94.18251                     124.63490
                       9.34665                     -96.49155                     123.94513
                       9.42412                     -98.80054                     123.25158
                       9.51694                    -101.10919                     122.55424
                       9.62203                    -103.41788                     121.85431
                       9.73905                    -105.72642                     121.15228
                       9.86719                    -108.03458                     120.44868
                      10.00551                    -110.34195                     119.74368
                      10.15202                    -112.64814                     119.03749
                      10.30663                    -114.95255                     118.33086
                      10.49263                    -117.29515                     117.75817
        </DataArray>
      </Points>
      <PointData>
        <DataArray type="Float32" Name="TranslationalVelocity" NumberOfComponents="3" format="ascii">
                      -0.62962                       0.86495                      -2.86628
                      -0.94283                       1.26292                      -4.57151
                      -1.25489                       1.68680                      -6.26971
                      -1.56461                       2.16175                      -7.95377
                      -1.87279                       2.67159                      -9.62819
                      -2.18014                       3.20090                     -11.29723
                      -2.48746                       3.73256                     -12.96561
                      -2.79587                       4.24240                     -14.63988
                      -3.10584                       4.72005                     -16.32279
                      -3.41560                       5.20399                     -18.00353
                      -3.72539                       5.68897                     -19.68354
                      -4.03576                       6.16426                     -21.36586
                      -4.34736                       6.61652                     -23.05438
                      -4.65975                       7.05595                     -24.74635
                      -4.97214                       7.50029                     -26.43691
                      -5.28454                       7.94979                     -28.12598
                      -5.59702                       8.40309                     -29.81393
                      -5.90959                       8.86017                     -31.50076
                      -6.22231                       9.31946                     -33.18683
                      -6.53525                       9.78006                     -34.87238
                      -6.84843                      10.24163                     -36.55754
                      -7.16186                      10.70445                     -38.24233
                      -7.47553                      11.16936                     -39.92664
                      -7.78945                      11.63700                     -41.61037
                      -8.10363                      12.10719                     -43.29359
                      -8.41806                      12.58010                     -44.97624
                      -8.73274                      13.05581                     -46.65828
                      -9.04773                      13.53432                     -48.33995
                      -9.36313                      14.01462                     -50.02174
                      -9.67893                      14.49719                     -51.70367
                      -9.99516                      14.98193                     -53.38575
                     -10.31181                      15.46876                     -55.06795
                     -10.62888                      15.95728                     -56.75023
                     -10.94635                      16.44729                     -58.43249
                     -11.26420                      16.93860                     -60.11456
                     -11.58249                      17.43101                     -61.79682
                     -11.90127                      17.92439                     -63.47944
                     -12.22053                      18.41837                     -65.16242
                     -12.54026                      18.91266                     -66.84573
                     -12.86045                      19.40690                     -68.52927
                     -13.18101                      19.90152                     -70.21267
                     -13.50193                      20.39668                     -71.89577
                     -13.82313                      20.89239                     -73.57837
                     -14.14468                      21.38822                     -75.26076
                     -14.46651                      21.88384                     -76.94281
                     -14.78857                      22.37899                     -78.62439
                     -15.11080                      22.87366                     -80.30523
                     -15.43311                      23.36801                     -81.98510
                     -15.75538                      23.86148                     -83.66363
                     -16.08244                      24.25303                     -85.37010
        </DataArray>
        <DataArray type="Float32" Name="RotationalVelocity" NumberOfComponents="3" format="ascii">
                       0.73344                       0.00340                      -0.13393
                       0.73343                       0.00340                      -0.13392
                       0.73339                       0.00340                      -0.13392
                       0.73334                       0.00341                      -0.13392
                       0.73326                       0.00342                      -0.13393
                       0.73317                       0.00343                      -0.13394
                       0.73307                       0.00345                      -0.13396
                       0.73296                       0.00347                      -0.13399
                       0.73284                       0.00349                      -0.13402
                       0.73272                       0.00351                      -0.13406
                       0.73260                       0.00354                      -0.13411
                       0.73247                       0.00357                      -0.13417
                       0.73234                       0.00360                      -0.13423
                       0.73222                       0.00363                      -0.13430
                       0.73210                       0.00366                      -0.13437
                       0.73197                       0.00370                      -0.13445
                       0.73186                       0.00373                      -0.13454
                       0.73174                       0.00377                      -0.13463
                       0.73163                       0.00380                      -0.13472
                       0.73151                       0.00384                      -0.13482
                       0.73141                       0.00388                      -0.13493
                       0.73130                       0.00391                      -0.13504
                       0.73119                       0.00395                      -0.13515
                       0.73109                       0.00399                      -0.13526
                       0.73098                       0.00403                      -0.13538
                       0.73087                       0.00408                      -0.13549
                       0.73077                       0.00412                      -0.13562
                       0.73066                       0.00416                      -0.13574
                       0.73055                       0.00420                      -0.13586
                       0.73043                       0.00425                      -0.13599
                       0.73032                       0.00429                      -0.13612
                       0.73020                       0.00434                      -0.13624
                       0.73007                       0.00438                      -0.13637
                       0.72995                       0.00443                      -0.13650
                       0.72982                       0.00447                      -0.13663
                       0.72969                       0.00452                      -0.13676
                       0.72955                       0.00457                      -0.13689
                       0.72942                       0.00461                      -0.13701
                       0.72928                       0.00466                      -0.13714
                       0.72915                       0.00470                      -0.13726
                       0.72901                       0.00475                      -0.13738
                       0.72889                       0.00479                      -0.13750
                       0.72876                       0.00483                      -0.13761
                       0.72865                       0.00487                      -0.13772
                       0.72854                       0.00491                      -0.13782
                       0.72845                       0.00494                      -0.13792
                       0.72838                       0.00497                      -0.13801
                       0.72832                       0.00500                      -0.13809
                       0.72829                       0.00502                      -0.13816
                       0.72829                       0.00504                      -0.13822
        </DataArray>
        <DataArray type="Float32" Name="TranslationalAcceleration" NumberOfComponents="3" format="ascii">
                       0.09951                       2.13970                       0.56388
                       0.14669                       3.43143                       0.86111
                       0.19739                       4.71771                       1.17746
                       0.25504                       5.99306                       1.53145
                       0.31743                       7.26080                       1.91133
                       0.38247                       8.52415                       2.30587
                       0.44784                       9.78665                       2.70260
                       0.51024                      11.05331                       3.08388
                       0.56826                      12.32625                       3.44218
                       0.62706                      13.59719                       3.80569
                       0.68590                      14.86719                       4.17057
                       0.74331                      16.13864                       4.52900
                       0.79745                      17.41454                       4.87124
                       0.84968                      18.69279                       5.20476
                       0.90236                      19.96964                       5.54249
                       0.95552                      21.24502                       5.88461
                       1.00895                      22.51924                       6.23011
                       1.06262                      23.79230                       6.57895
                       1.11633                      25.06449                       6.92997
                       1.16993                      26.33602                       7.28248
                       1.22338                      27.60700                       7.63624
                       1.27670                      28.87747                       7.99142
                       1.33003                      30.14734                       8.34863
                       1.38344                      31.41651                       8.70832
                       1.43691                      32.68505                       9.07036
                       1.49049                      33.95288                       9.43483
                       1.54420                      35.21998                       9.80182
                       1.59805                      36.48654                      10.17132
                       1.65191                      37.75294                      10.54261
                       1.70588                      39.01919                      10.91604
                       1.75995                      40.28525                      11.29155
                       1.81414                      41.55110                      11.66908
                       1.86842                      42.81667                      12.04836
                       1.92279                      44.08187                      12.42923
                       1.97724                      45.34654                      12.81159
                       2.03177                      46.61098                      13.19528
                       2.08639                      47.87532                      13.58026
                       2.14106                      49.13953                      13.96623
                       2.19577                      50.40360                      14.35300
                       2.25050                      51.66743                      14.74032
                       2.30532                      52.93075                      15.12847
                       2.36028                      54.19343                      15.51755
                       2.41539                      55.45534                      15.90755
                       2.47061                      56.71672                      16.29811
                       2.52592                      57.97752                      16.68896
                       2.58128                      59.23769                      17.07982
                       2.63669                      60.49707                      17.47061
                       2.69219                      61.75556                      17.86132
                       2.74769                      63.01297                      18.25142
                       2.78917                      64.29312                      18.56770
        </DataArray>
        <DataArray type="Float32" Name="OrientationX" NumberOfComponents="3" format="ascii">
                       0.88422                       0.03022                      -0.46610
                       0.88418                       0.02921                      -0.46624
                       0.88525                       0.02506                      -0.46444
                       0.88853                       0.01951                      -0.45840
                       0.89379                       0.01576                      -0.44821
                       0.90046                       0.01385                      -0.43471
                       0.90798                       0.01376                      -0.41879
                       0.91569                       0.01464                      -0.40163
                       0.92280                       0.01287                      -0.38505
                       0.92900                       0.00851                      -0.36997
                       0.93433                       0.00549                      -0.35638
                       0.93887                       0.00543                      -0.34422
                       0.94295                       0.00708                      -0.33287
                       0.94682                       0.00808                      -0.32168
                       0.95040                       0.00875                      -0.31090
                       0.95373                       0.00984                      -0.30049
                       0.95679                       0.01146                      -0.29057
                       0.95949                       0.01320                      -0.28144
                       0.96179                       0.01403                      -0.27341
                       0.96373                       0.01371                      -0.26652
                       0.96541                       0.01247                      -0.26044
                       0.96694                       0.01139                      -0.25476
                       0.96842                       0.01173                      -0.24906
                       0.96984                       0.01338                      -0.24337
                       0.97122                       0.01630                      -0.23763
                       0.97253                       0.02000                      -0.23190
                       0.97369                       0.02221                      -0.22681
                       0.97466                       0.02260                      -0.22255
                       0.97554                       0.02273                      -0.21866
                       0.97638                       0.02378                      -0.21476
                       0.97722                       0.02627                      -0.21059
                       0.97807                       0.03010                      -0.20607
                       0.97893                       0.03511                      -0.20117
                       0.97979                       0.04099                      -0.19578
                       0.98066                       0.04614                      -0.19020
                       0.98160                       0.04963                      -0.18440
                       0.98264                       0.05278                      -0.17787
                       0.98363                       0.05629                      -0.17118
                       0.98450                       0.06022                      -0.16469
                       0.98519                       0.06479                      -0.15875
                       0.98565                       0.06968                      -0.15377
                       0.98570                       0.07498                      -0.15088
                       0.98556                       0.07987                      -0.14929
                       0.98533                       0.08416                      -0.14845
                       0.98500                       0.08835                      -0.14821
                       0.98458                       0.09235                      -0.14859
                       0.98405                       0.09601                      -0.14973
                       0.98338                       0.09956                      -0.15181
                       0.98262                       0.10226                      -0.15493
                       0.98166                       0.10566                      -0.15871
        </DataArray>
        <DataArray type="Float32" Name="OrientationY" NumberOfComponents="3" format="ascii">
                       0.45761                      -0.25591                       0.85153
                       0.45748                      -0.25623                       0.85151
                       0.45463                      -0.25746                       0.85266
                       0.44733                      -0.25900                       0.85605
                       0.43651                      -0.25997                       0.86132
                       0.42300                      -0.26041                       0.86790
                       0.40763                      -0.26045                       0.87522
                       0.39130                      -0.26038                       0.88266
                       0.37484                      -0.26095                       0.88961
                       0.35913                      -0.26200                       0.89576
                       0.34520                      -0.26283                       0.90097
                       0.33342                      -0.26329                       0.90527
                       0.32287                      -0.26359                       0.90900
                       0.31229                      -0.26400                       0.91257
                       0.30204                      -0.26448                       0.91587
                       0.29225                      -0.26493                       0.91891
                       0.28307                      -0.26536                       0.92166
                       0.27471                      -0.26580                       0.92406
                       0.26716                      -0.26631                       0.92612
                       0.26040                      -0.26690                       0.92788
                       0.25419                      -0.26750                       0.92942
                       0.24840                      -0.26807                       0.93083
                       0.24298                      -0.26854                       0.93212
                       0.23791                      -0.26894                       0.93331
                       0.23314                      -0.26931                       0.93441
                       0.22860                      -0.26966                       0.93543
                       0.22427                      -0.27006                       0.93636
                       0.22026                      -0.27049                       0.93719
                       0.21654                      -0.27091                       0.93793
                       0.21306                      -0.27131                       0.93861
                       0.20971                      -0.27168                       0.93926
                       0.20640                      -0.27205                       0.93989
                       0.20304                      -0.27244                       0.94051
                       0.19947                      -0.27286                       0.94115
                       0.19553                      -0.27331                       0.94184
                       0.19092                      -0.27380                       0.94265
                       0.18553                      -0.27434                       0.94357
                       0.18010                      -0.27489                       0.94446
                       0.17498                      -0.27543                       0.94526
                       0.17057                      -0.27595                       0.94592
                       0.16718                      -0.27642                       0.94638
                       0.16593                      -0.27673                       0.94651
                       0.16581                      -0.27692                       0.94648
                       0.16624                      -0.27703                       0.94637
                       0.16722                      -0.27706                       0.94619
                       0.16874                      -0.27701                       0.94593
                       0.17089                      -0.27686                       0.94559
                       0.17391                      -0.27657                       0.94513
                       0.17766                      -0.27613                       0.94456
                       0.18226                      -0.27557                       0.94384
        </DataArray>
        <DataArray type="Float32" Name="OrientationZ" NumberOfComponents="3" format="ascii">
                      -0.09355                      -0.96623                      -0.24011
                      -0.09459                      -0.96617                      -0.23991
                      -0.09820                      -0.96596                      -0.23931
                      -0.10203                      -0.96568                      -0.23886
                      -0.10295                      -0.96549                      -0.23923
                      -0.10118                      -0.96540                      -0.24035
                      -0.09703                      -0.96539                      -0.24209
                      -0.09165                      -0.96539                      -0.24416
                      -0.08903                      -0.96527                      -0.24563
                      -0.08931                      -0.96503                      -0.24645
                      -0.08872                      -0.96483                      -0.24747
                      -0.08572                      -0.96470                      -0.24901
                      -0.08130                      -0.96461                      -0.25083
                      -0.07755                      -0.96449                      -0.25248
                      -0.07421                      -0.96435                      -0.25400
                      -0.07057                      -0.96422                      -0.25555
                      -0.06654                      -0.96408                      -0.25713