<?xml version="1.0"?>
<VTKFile type="PolyData" version="0.1" byte_order="LittleEndian">
  <PolyData>
    <Piece NumberOfPoints="     50" NumberOfVerts="  0" NumberOfLines="     49"
           NumberOfStrips="  0" NumberOfPolys="      0">
      <Points>
        <DataArray type="Float32" NumberOfComponents="3" format="ascii">
                      20.10963                       1.85992                     152.85948
                      20.27964                       3.54503                     154.54461
                      20.44870                       5.20387                     156.25440
                      20.61220                       6.81063                     158.01341
                      20.77520                       8.38239                     159.80519
                      20.94240                       9.93539                     161.61409
                      21.11760                      11.48748                     163.42301
                      21.30274                      13.06359                     165.20829
                      21.49683                      14.67429                     166.96000
                      21.69143                      16.27977                     168.71632
                      21.88552                      17.88541                     170.47236
                      22.08191                      19.50238                     172.21738
                      22.28599                      21.14463                     173.93763
                      22.49864                      22.80167                     175.64281
                      22.71962                      24.45533                     177.35003
                      22.94966                      26.10530                     179.05946
                      23.18931                      27.75293                     180.76972
                      23.43962                      29.39820                     182.48063
                      23.69886                      31.04258                     184.19102
                      23.96293                      32.68690                     185.90076
                      24.22917                      34.33149                     187.61008
                      24.49517                      35.97615                     189.31979
                      24.76392                      37.62015                     191.03028
                      25.03928                      39.26293                     192.74152
                      25.32364                      40.90472                     194.45294
                      25.62049                      42.54536                     196.16406
                      25.92994                      44.18475                     197.87494
                      26.24477                      45.82319                     199.58707
                      26.56326                      47.46195                     201.29990
                      26.88584                      49.10081                     203.01390
                      27.21666                      50.73991                     204.72820
                      27.55881                      52.37937                     206.44209
                      27.91598                      54.01949                     208.15437
                      28.29059                      55.66038                     209.86422
                      28.68504                      57.30201                     211.57085
                      29.09436                      58.94504                     213.27513
                      29.51678                      60.58978                     214.97734
                      29.95387                      62.23653                     216.67667
                      30.40618                      63.88551                     218.37264
                      30.87510                      65.53682                     220.06446
                      31.36165                      67.18973                     221.75218
                      31.86536                      68.84390                     223.43593
                      32.38601                      70.49898                     225.11568
                      32.92039                      72.15550                     226.79172
                      33.46802                      73.81335                     228.46375
                      34.02794                      75.47231                     230.13164
                      34.59918                      77.13180                     231.79552
                      35.17973                      78.79109                     233.45593
                      35.76914                      80.44968                     235.11229
                      36.34707                      82.21044                     236.66949
        </DataArray>
      </Points>
      <PointData>
        <DataArray type="Float32" Name="TranslationalVelocity" NumberOfComponents="3" format="ascii">
                       0.18243                      -2.10978                       1.94355
                       0.41548                      -3.37862                       3.18887
                       0.64513                      -4.66567                       4.41487
                       0.86802                      -5.98858                       5.60257
                       1.08643                      -7.33597                       6.76464
                       1.30250                      -8.69698                       7.91310
                       1.51861                     -10.05953                       9.06120
                       1.73806                     -11.40641                      10.22740
                       1.96227                     -12.73014                      11.41959
                       2.18607                     -14.05787                      12.60832
                       2.41022                     -15.38585                      13.79760
                       2.63619                     -16.70648                      14.99570
                       2.86585                     -18.01030                      16.21294
                       3.09785                     -19.30458                      17.44155
                       3.32982                     -20.60198                      18.66802
                       3.56176                     -21.90270                      19.89212
                       3.79384                     -23.20580                      21.11481
                       4.02608                     -24.51127                      22.33606
                       4.25867                     -25.81798                      23.55694
                       4.49174                     -27.12527                      24.77808
                       4.72534                     -28.43295                      25.99973
                       4.95945                     -29.74127                      27.22174
                       5.19395                     -31.05091                      28.44354
                       5.42879                     -32.36239                      29.66470
                       5.66398                     -33.67561                      30.88536
                       5.89948                     -34.99068                      32.10537
                       6.13529                     -36.30768                      33.32467
                       6.37143                     -37.62672                      34.54353
                       6.60809                     -38.94719                      35.76292
                       6.84521                     -40.26951                      36.98268
                       7.08282                     -41.59361                      38.20292
                       7.32089                     -42.91941                      39.42370
                       7.55947                     -44.24654                      40.64525
                       7.79855                     -45.57476                      41.86765
                       8.03810                     -46.90383                      43.09087
                       8.27821                     -48.23373                      44.31546
                       8.51892                     -49.56445                      45.54170
                       8.76024                     -50.89562                      46.76979
                       9.00219                     -52.22697                      47.99992
                       9.24476                     -53.55812                      49.23216
                       9.48784                     -54.88923                      50.46596
                       9.73135                     -56.22035                      51.70105
                       9.97523                     -57.55139                      52.93718
                      10.21951                     -58.88212                      54.17472
                      10.46415                     -60.21219                      55.41357
                      10.70909                     -61.54131                      56.65353
                      10.95419                     -62.86937                      57.89409
                      11.19932                     -64.19641                      59.13464
                      11.44436                     -65.52178                      60.37470
                      11.70280                     -66.77119                      61.69149
        </DataArray>
        <DataArray type="Float32" Name="RotationalVelocity" NumberOfComponents="3" format="ascii">
                       0.73939                       0.00394                      -0.13436
                       0.73944                       0.00394                      -0.13437
                       0.73953                       0.00395                      -0.13438
                       0.73967                       0.00397                      -0.13441
                       0.73986                       0.00399                      -0.13445
                       0.74007                       0.00403                      -0.13450
                       0.74032                       0.00407                      -0.13456
                       0.74058                       0.00413                      -0.13463
                       0.74085                       0.00420                      -0.13472
                       0.74113                       0.00428                      -0.13482
                       0.74141                       0.00437                      -0.13493
                       0.74169                       0.00447                      -0.13505
                       0.74197                       0.00458                      -0.13517
                       0.74224                       0.00470                      -0.13530
                       0.74250                       0.00482                      -0.13544
                       0.74275                       0.00495                      -0.13558
                       0.74299                       0.00509                      -0.13572
                       0.74322                       0.00522                      -0.13587
                       0.74344                       0.00536                      -0.13602
                       0.74366                       0.00550                      -0.13617
                       0.74386                       0.00564                      -0.13632
                       0.74406                       0.00579                      -0.13647
                       0.74426                       0.00593                      -0.13661
                       0.74445                       0.00607                      -0.13676
                       0.74465                       0.00621                      -0.13691
                       0.74484                       0.00634                      -0.13705
                       0.74504                       0.00648                      -0.13719
                       0.74524                       0.00661                      -0.13733
                       0.74545                       0.00673                      -0.13746
                       0.74566                       0.00686                      -0.13760
                       0.74589                       0.00698                      -0.13773
                       0.74612                       0.00709                      -0.13785
                       0.74636                       0.00720                      -0.13798
                       0.74662                       0.00731                      -0.13810
                       0.74688                       0.00741                      -0.13821
                       0.74715                       0.00750                      -0.13833
                       0.74743                       0.00760                      -0.13843
                       0.74772                       0.00768                      -0.13854
                       0.74801                       0.00777                      -0.13864
                       0.74831                       0.00784                      -0.13873
                       0.74860                       0.00791                      -0.13882
                       0.74888                       0.00797                      -0.13890
                       0.74916                       0.00803                      -0.13898
                       0.74941                       0.00808                      -0.13904
                       0.74964                       0.00812                      -0.13910
                       0.74984                       0.00815                      -0.13914
                       0.75000                       0.00817                      -0.13918
                       0.75011                       0.00818                      -0.13919
                       0.75015                       0.00818                      -0.13920
                       0.75014                       0.00817                      -0.13919
        </DataArray>
        <DataArray type="Float32" Name="TranslationalAcceleration" NumberOfComponents="3" format="ascii">
                      -0.29577                      -1.51165                      -1.61800
                      -0.46195                      -2.46367                      -2.55714
                      -0.63065                      -3.40110                      -3.50974
                      -0.80436                      -4.30959                      -4.48885
                      -0.98150                      -5.19891                      -5.48612
                      -1.16059                      -6.07833                      -6.49355
                      -1.33995                      -6.95805                      -7.50223
                      -1.51719                      -7.85221                      -8.49943
                      -1.69124                      -8.76688                      -9.47958
                      -1.86589                      -9.67961                     -10.46280
                      -2.04061                     -10.59349                     -11.44629
                      -2.21431                     -11.51483                     -12.42444
                      -2.38567                     -12.45152                     -13.39017
                      -2.55567                     -13.39762                     -14.34888
                      -2.72610                     -14.34280                     -15.30997
                      -2.89698                     -15.28686                     -16.27360
                      -3.06818                     -16.23053                     -17.23906
                      -3.23970                     -17.17375                     -18.20636
                      -3.41140                     -18.11732                     -19.17465
                      -3.58318                     -19.06171                     -20.14344
                      -3.75503                     -20.00708                     -21.11259
                      -3.92701                     -20.95330                     -22.08228
                      -4.09921                     -21.89994                     -23.05303
                      -4.27175                     -22.84664                     -24.02521
                      -4.44463                     -23.79351                     -24.99876
                      -4.61789                     -24.74043                     -25.97375
                      -4.79157                     -25.68735                     -26.95025
                      -4.96571                     -26.63449                     -27.92835
                      -5.14026                     -27.58261                     -28.90757
                      -5.31531                     -28.53160                     -29.88825
                      -5.49087                     -29.48157                     -30.87032
                      -5.66699                     -30.43258                     -31.85373
                      -5.84363                     -31.38481                     -32.83820
                      -6.02080                     -32.33836                     -33.82353
                      -6.19849                     -33.29322                     -34.80956
                      -6.37674                     -34.24983                     -35.79625
                      -6.55557                     -35.20844                     -36.78359
                      -6.73496                     -36.16922                     -37.77131
                      -6.91489                     -37.13231                     -38.75919
                      -7.09533                     -38.09779                     -39.74691
                      -7.27632                     -39.06520                     -40.73462
                      -7.45788                     -40.03435                     -41.72231
                      -7.64002                     -41.00498                     -42.70992
                      -7.82270                     -41.97735                     -43.69726
                      -8.00586                     -42.95132                     -44.68406
                      -8.18946                     -43.92664                     -45.67008
                      -8.37346                     -44.90279                     -46.65523
                      -8.55782                     -45.87918                     -47.63951
                      -8.74243                     -46.85524                     -48.62243
                      -8.91615                     -47.88991                     -49.54762
        </DataArray>
        <DataArray type="Float32" Name="OrientationX" NumberOfComponents="3" format="ascii">
                       0.98286                      -0.17346                       0.06251
                       0.98295                      -0.17265                       0.06320
                       0.98372                      -0.16804                       0.06366
                       0.98528                      -0.15978                       0.06082
                       0.98715                      -0.15067                       0.05313
                       0.98911                      -0.14125                       0.04141
                       0.99089                      -0.13202                       0.02657
                       0.99236                      -0.12295                       0.01019
                       0.99370                      -0.11201                      -0.00415
                       0.99489                      -0.09973                      -0.01567
                       0.99564                      -0.08944                      -0.02642
                       0.99589                      -0.08250                      -0.03733
                       0.99582                      -0.07749                      -0.04834
                       0.99567                      -0.07203                      -0.05881
                       0.99542                      -0.06655                      -0.06871
                       0.99501                      -0.06164                      -0.07845
                       0.99446                      -0.05747                      -0.08801
                       0.99384                      -0.05387                      -0.09688
                       0.99328                      -0.05010                      -0.10431
                       0.99285                      -0.04598                      -0.11015
                       0.99252                      -0.04154                      -0.11479
                       0.99216                      -0.03747                      -0.11919
                       0.99164                      -0.03463                      -0.12433
                       0.99095                      -0.03293                      -0.13015
                       0.99009                      -0.03233                      -0.13667
                       0.98911                      -0.03243                      -0.14358
                       0.98830                      -0.03163                      -0.14921
                       0.98775                      -0.02973                      -0.15321
                       0.98724                      -0.02785                      -0.15680
                       0.98661                      -0.02677                      -0.16087
                       0.98577                      -0.02682                      -0.16595
                       0.98470                      -0.02787                      -0.17201
                       0.98340                      -0.02977                      -0.17900
                       0.98186                      -0.03221                      -0.18686
                       0.98031                      -0.03396                      -0.19453
                       0.97887                      -0.03419                      -0.20159
                       0.97731                      -0.03379                      -0.20912
                       0.97560                      -0.03364                      -0.21696
                       0.97380                      -0.03400                      -0.22484
                       0.97194                      -0.03522                      -0.23256
                       0.97016                      -0.03724                      -0.23960
                       0.96865                      -0.04070                      -0.24505
                       0.96743                      -0.04449                      -0.24919
                       0.96642                      -0.04814                      -0.25240
                       0.96553                      -0.05201                      -0.25504
                       0.96478                      -0.05603                      -0.25703
                       0.96422                      -0.06013                      -0.25820
                       0.96386                      -0.06459                      -0.25848
                       0.96384                      -0.06880                      -0.25744
                       0.96381                      -0.07395                      -0.25612
        </DataArray>
        <DataArray type="Float32" Name="OrientationY" NumberOfComponents="3" format="ascii">
                       0.16870                       0.70919                      -0.68454
                       0.16860                       0.70934                      -0.68440
                       0.16563                       0.71050                      -0.68392
                       0.15775                       0.71252                      -0.68369
                       0.14589                       0.71456                      -0.68419
                       0.13101                       0.71649                      -0.68518
                       0.11410                       0.71821                      -0.68641
                       0.09623                       0.71976                      -0.68752
                       0.07846                       0.72156                      -0.68789
                       0.06168                       0.72342                      -0.68765
                       0.04687                       0.72479                      -0.68737
                       0.03435                       0.72559                      -0.68727
                       0.02315                       0.72610                      -0.68720
                       0.01199                       0.72663                      -0.68692
                       0.00123                       0.72713                      -0.68650
                      -0.00902                       0.72754                      -0.68601
                      -0.01860                       0.72785                      -0.68549
                      -0.02731                       0.72809                      -0.68493
                      -0.03513                       0.72833                      -0.68432
                      -0.04210                       0.72857                      -0.68368
                      -0.04849                       0.72878                      -0.68302
                      -0.05445                       0.72895                      -0.68240
                      -0.06003                       0.72902                      -0.68185
                      -0.06526                       0.72903                      -0.68137
                      -0.07019                       0.72898                      -0.68092
                      -0.07488                       0.72891                      -0.68050
                      -0.07934                       0.72885                      -0.68006
                      -0.08348                       0.72879                      -0.67963
                      -0.08733                       0.72870                      -0.67924
                      -0.09093                       0.72857                      -0.67891
                      -0.09442                       0.72839                      -0.67862
                      -0.09788                       0.72820                      -0.67834
                      -0.10138                       0.72799                      -0.67805
                      -0.10510                       0.72777                      -0.67772
                      -0.10920                       0.72757                      -0.67729
                      -0.11396                       0.72736                      -0.67673
                      -0.11951                       0.72715                      -0.67600
                      -0.12509                       0.72693                      -0.67522
                      -0.13036                       0.72669                      -0.67448
                      -0.13491                       0.72643                      -0.67387
                      -0.13846                       0.72614                      -0.67346
                      -0.13990                       0.72579                      -0.67355
                      -0.14023                       0.72538                      -0.67391
                      -0.14002                       0.72497                      -0.67440
                      -0.13926                       0.72456                      -0.67499
                      -0.13796                       0.72417                      -0.67568
                      -0.13601                       0.72379                      -0.67649
                      -0.13319                       0.72342                      -0.67744
                      -0.12962                       0.72306                      -0.67852
                      -0.12518                       0.72271                      -0.67972
        </DataArray>
        <DataArray type="Float32" Name="OrientationZ" NumberOfComponents="3" format="ascii">
                       0.07441                       0.68335                       0.72629
                       0.07333                       0.68339                       0.72636
                       0.06969                       0.68333                       0.72677
                       0.06591                       0.68322                       0.72723
                       0.06513                       0.68315                       0.72737
                       0.06711                       0.68314                       0.72719
                       0.07154                       0.68319                       0.72673
                       0.07720                       0.68324                       0.72610
                       0.08004                       0.68323                       0.72580
                       0.07991                       0.68317                       0.72587
                       0.08063                       0.68314                       0.72582
                       0.08379                       0.68316                       0.72544
                       0.08835                       0.68321                       0.72486
                       0.09222                       0.68324                       0.72435
                       0.09564                       0.68326                       0.72388
                       0.09936                       0.68330                       0.72335
                       0.10345                       0.68333                       0.72275