<?xml version="1.0"?>
<VTKFile type="PolyData" version="0.1" byte_order="LittleEndian">
  <PolyData>
    <Piece NumberOfPoints="      3" NumberOfVerts="  0" NumberOfLines="      2"
           NumberOfStrips="  0" NumberOfPolys="      0">
      <Points>
        <DataArray type="Float32" NumberOfComponents="3" format="ascii">
                      36.06384                      -0.82912                     147.53268
                      36.06420                      -0.82917                     147.53767
                      36.06348                      -0.82907                     147.52770
        </DataArray>
      </Points>
      <PointData>
        <DataArray type="Float32" Name="TranslationalVelocity" NumberOfComponents="3" format="ascii">
                      -0.20628                      -0.05572                       0.00648
                      -0.20628                      -0.05573                       0.00648
                      -0.20628                      -0.05572                       0.00648
        </DataArray>
        <DataArray type="Float32" Name="RotationalVelocity" NumberOfComponents="3" format="ascii">
                       0.00042                      -0.00009                      -0.00026
                       0.00042                      -0.00009                      -0.00026
                       0.00042                      -0.00009                      -0.00026
        </DataArray>
        <DataArray type="Float32" Name="TranslationalAcceleration" NumberOfComponents="3" format="ascii">
                      -0.00126                       0.02219                       0.02047
                      -0.00126                       0.02219                       0.02047
                      -0.00126                       0.02219                       0.02047
        </DataArray>
        <DataArray type="Float32" Name="RotationalAcceleration" NumberOfComponents="3" format="ascii">
                      -0.00030                      -0.00014                      -0.00073
                      -0.00030                      -0.00014                      -0.00073
                      -0.00030                      -0.00014                      -0.00073
        </DataArray>
        <DataArray type="Float32" Name="OrientationX" NumberOfComponents="3" format="ascii">
                       0.99738                       0.00486                      -0.07224
                       0.99738                       0.00486                      -0.07224
                       0.99738                       0.00486                      -0.07224
        </DataArray>
        <DataArray type="Float32" Name="OrientationY" NumberOfComponents="3" format="ascii">
                      -0.00416                       0.99994                       0.00973
                      -0.00416                       0.99994                       0.00973
                      -0.00416                       0.99994                       0.00973
        </DataArray>
        <DataArray type="Float32" Name="OrientationZ" NumberOfComponents="3" format="ascii">
                       0.07229                      -0.00940                       0.99734
                       0.07229                      -0.00940                       0.99734
                       0.07229                      -0.00940                       0.99734
        </DataArray>
      </PointData>
      <Lines>
        <DataArray type="Int32" Name="connectivity" format="ascii">
      0      1
      2      0
        </DataArray>
        <DataArray type="Int32" Name="offsets" format="ascii">
      2
      4
        </DataArray>
      </Lines>
    </Piece>
  </PolyData>
</VTKFile>
