<?xml version="1.0"?>
<VTKFile type="PolyData" version="0.1" byte_order="LittleEndian">
  <PolyData>
    <Piece NumberOfPoints="      3" NumberOfVerts="  0" NumberOfLines="      2"
           NumberOfStrips="  0" NumberOfPolys="      0">
      <Points>
        <DataArray type="Float32" NumberOfComponents="3" format="ascii">
                      37.30994                       0.14420                     147.84858
                      37.31031                       0.14419                     147.85356
                      37.30958                       0.14421                     147.84359
        </DataArray>
      </Points>
      <PointData>
        <DataArray type="Float32" Name="TranslationalVelocity" NumberOfComponents="3" format="ascii">
                       0.33392                       0.05217                       0.04149
                       0.33392                       0.05218                       0.04149
                       0.33391                       0.05217                       0.04149
        </DataArray>
        <DataArray type="Float32" Name="RotationalVelocity" NumberOfComponents="3" format="ascii">
                      -0.00035                       0.00123                      -0.00032
                      -0.00035                       0.00123                      -0.00032
                      -0.00035                       0.00123                      -0.00032
        </DataArray>
        <DataArray type="Float32" Name="TranslationalAcceleration" NumberOfComponents="3" format="ascii">
                      -0.08454                      -0.02422                      -0.00753
                      -0.08454                      -0.02422                      -0.00753
                      -0.08454                      -0.02422                      -0.00753
        </DataArray>
        <DataArray type="Float32" Name="RotationalAcceleration" NumberOfComponents="3" format="ascii">
                       0.00008                      -0.00012                      -0.00046
                       0.00008                      -0.00012                      -0.00046
                       0.00008                      -0.00012                      -0.00046
        </DataArray>
        <DataArray type="Float32" Name="OrientationX" NumberOfComponents="3" format="ascii">
                       0.99727                       0.00816                      -0.07336
                       0.99727                       0.00816                      -0.07336
                       0.99727                       0.00816                      -0.07336
        </DataArray>
        <DataArray type="Float32" Name="OrientationY" NumberOfComponents="3" format="ascii">
                      -0.00797                       0.99996                       0.00289
                      -0.00797                       0.99996                       0.00289
                      -0.00797                       0.99996                       0.00289
        </DataArray>
        <DataArray type="Float32" Name="OrientationZ" NumberOfComponents="3" format="ascii">
                       0.07338                      -0.00230                       0.99730
                       0.07338                      -0.00230                       0.99730
                       0.07338                      -0.00230                       0.99730
        </DataArray>
      </PointData>
      <Lines>
        <DataArray type="Int32" Name="connectivity" format="ascii">
      0      1
      2      0
        </DataArray>
        <DataArray type="Int32" Name="offsets" format="ascii">
      2
      4
        </DataArray>
      </Lines>
    </Piece>
  </PolyData>
</VTKFile>
