<?xml version="1.0"?>
<VTKFile type="PolyData" version="0.1" byte_order="LittleEndian">
  <PolyData>
    <Piece NumberOfPoints="      3" NumberOfVerts="  0" NumberOfLines="      2"
           NumberOfStrips="  0" NumberOfPolys="      0">
      <Points>
        <DataArray type="Float32" NumberOfComponents="3" format="ascii">
                      27.05632                      -0.39070                     147.98437
                      27.05669                      -0.39074                     147.98936
                      27.05594                      -0.39067                     147.97939
        </DataArray>
      </Points>
      <PointData>
        <DataArray type="Float32" Name="TranslationalVelocity" NumberOfComponents="3" format="ascii">
                       0.14541                      -0.10710                      -0.00958
                       0.14541                      -0.10711                      -0.00958
                       0.14541                      -0.10710                      -0.00958
        </DataArray>
        <DataArray type="Float32" Name="RotationalVelocity" NumberOfComponents="3" format="ascii">
                       0.00071                       0.00028                       0.00022
                       0.00071                       0.00028                       0.00022
                       0.00071                       0.00028                       0.00022
        </DataArray>
        <DataArray type="Float32" Name="TranslationalAcceleration" NumberOfComponents="3" format="ascii">
                       0.01081                       0.00454                      -0.01726
                       0.01081                       0.00454                      -0.01726
                       0.01081                       0.00454                      -0.01726
        </DataArray>
        <DataArray type="Float32" Name="RotationalAcceleration" NumberOfComponents="3" format="ascii">
                       0.00010                      -0.00015                       0.00061
                       0.00010                      -0.00015                       0.00061
                       0.00010                      -0.00015                       0.00061
        </DataArray>
        <DataArray type="Float32" Name="OrientationX" NumberOfComponents="3" format="ascii">
                       0.99715                       0.00595                      -0.07525
                       0.99715                       0.00595                      -0.07525
                       0.99715                       0.00595                      -0.07525
        </DataArray>
        <DataArray type="Float32" Name="OrientationY" NumberOfComponents="3" format="ascii">
                      -0.00545                       0.99996                       0.00697
                      -0.00545                       0.99996                       0.00697
                      -0.00545                       0.99996                       0.00697
        </DataArray>
        <DataArray type="Float32" Name="OrientationZ" NumberOfComponents="3" format="ascii">
                       0.07529                      -0.00654                       0.99714
                       0.07529                      -0.00654                       0.99714
                       0.07529                      -0.00654                       0.99714
        </DataArray>
      </PointData>
      <Lines>
        <DataArray type="Int32" Name="connectivity" format="ascii">
      0      1
      2      0
        </DataArray>
        <DataArray type="Int32" Name="offsets" format="ascii">
      2
      4
        </DataArray>
      </Lines>
    </Piece>
  </PolyData>
</VTKFile>
