<?xml version="1.0"?>
<VTKFile type="PolyData" version="0.1" byte_order="LittleEndian">
  <PolyData>
    <Piece NumberOfPoints="      3" NumberOfVerts="  0" NumberOfLines="      2"
           NumberOfStrips="  0" NumberOfPolys="      0">
      <Points>
        <DataArray type="Float32" NumberOfComponents="3" format="ascii">
                      31.76272                      -0.03670                     147.92970
                      31.76308                      -0.03672                     147.93469
                      31.76236                      -0.03668                     147.92472
        </DataArray>
      </Points>
      <PointData>
        <DataArray type="Float32" Name="TranslationalVelocity" NumberOfComponents="3" format="ascii">
                       0.22094                      -0.05314                      -0.03817
                       0.22094                      -0.05314                      -0.03817
                       0.22094                      -0.05313                      -0.03817
        </DataArray>
        <DataArray type="Float32" Name="RotationalVelocity" NumberOfComponents="3" format="ascii">
                       0.00026                      -0.00005                      -0.00040
                       0.00026                      -0.00005                      -0.00040
                       0.00026                      -0.00005                      -0.00040
        </DataArray>
        <DataArray type="Float32" Name="TranslationalAcceleration" NumberOfComponents="3" format="ascii">
                       0.00121                      -0.01850                      -0.01565
                       0.00121                      -0.01850                      -0.01565
                       0.00120                      -0.01849                      -0.01565
        </DataArray>
        <DataArray type="Float32" Name="RotationalAcceleration" NumberOfComponents="3" format="ascii">
                       0.00018                       0.00063                       0.00028
                       0.00018                       0.00063                       0.00028
                       0.00018                       0.00063                       0.00028
        </DataArray>
        <DataArray type="Float32" Name="OrientationX" NumberOfComponents="3" format="ascii">
                       0.99734                       0.00660                      -0.07259
                       0.99734                       0.00660                      -0.07259
                       0.99734                       0.00660                      -0.07259
        </DataArray>
        <DataArray type="Float32" Name="OrientationY" NumberOfComponents="3" format="ascii">
                      -0.00635                       0.99997                       0.00368
                      -0.00635                       0.99997                       0.00368
                      -0.00635                       0.99997                       0.00368
        </DataArray>
        <DataArray type="Float32" Name="OrientationZ" NumberOfComponents="3" format="ascii">
                       0.07261                      -0.00321                       0.99736
                       0.07261                      -0.00321                       0.99736
                       0.07261                      -0.00321                       0.99736
        </DataArray>
      </PointData>
      <Lines>
        <DataArray type="Int32" Name="connectivity" format="ascii">
      0      1
      2      0
        </DataArray>
        <DataArray type="Int32" Name="offsets" format="ascii">
      2
      4
        </DataArray>
      </Lines>
    </Piece>
  </PolyData>
</VTKFile>
