<?xml version="1.0"?>
<VTKFile type="PolyData" version="0.1" byte_order="LittleEndian">
  <PolyData>
    <Piece NumberOfPoints="     50" NumberOfVerts="  0" NumberOfLines="     49"
           NumberOfStrips="  0" NumberOfPolys="      0">
      <Points>
        <DataArray type="Float32" NumberOfComponents="3" format="ascii">
                       6.59252                       2.62361                     151.35420
                       6.60119                       4.90751                     152.05557
                       6.61007                       7.17968                     152.79103
                       6.61521                       9.42852                     153.59435
                       6.62042                      11.66181                     154.44290
                       6.62930                      13.88695                     155.31523
                       6.64448                      16.11198                     156.18780
                       6.66648                      18.34802                     157.02808
                       6.69357                      20.59966                     157.82236
                       6.71884                      22.84899                     158.62311
                       6.74080                      25.09836                     159.42352
                       6.76155                      27.35280                     160.20888
                       6.78568                      29.61861                     160.96055
                       6.81434                      31.89116                     161.69201
                       6.84794                      34.16240                     162.42693
                       6.88706                      36.43221                     163.16566
                       6.93198                      38.70119                     163.90639
                       6.98360                      40.96935                     164.64902
                       7.03993                      43.23730                     165.39188
                       7.09663                      45.50533                     166.13453
                       7.15080                      47.77357                     166.87708
                       7.19983                      50.04194                     167.62038
                       7.24648                      52.31024                     168.36513
                       7.29442                      54.57830                     169.11162
                       7.34577                      56.84630                     169.85928
                       7.40384                      59.11420                     170.60783
                       7.46848                      61.38200                     171.35743
                       7.53206                      63.64984                     172.10930
                       7.59248                      65.91836                     172.86240
                       7.64988                      68.18756                     173.61731
                       7.70809                      70.45758                     174.37325
                       7.76995                      72.72853                     175.12964
                       7.83882                      75.00057                     175.88536
                       7.91689                      77.27377                     176.63975
                       8.00633                      79.54811                     177.39223
                       8.10182                      81.82396                     178.14331
                       8.20135                      84.10153                     178.89318
                       8.30629                      86.38097                     179.64110
                       8.41706                      88.66237                     180.38664
                       8.53498                      90.94575                     181.12918
                       8.66112                      93.23075                     181.86919
                       8.79505                      95.51720                     182.60703
                       8.93672                      97.80491                     183.34285
                       9.08304                     100.09412                     184.07664
                       9.23389                     102.38472                     184.80816
                       9.38875                     104.67651                     185.53736
                       9.54726                     106.96907                     186.26454
                       9.70815                     109.26196                     186.99041
                       9.87192                     111.55464                     187.71457
                      10.01474                     113.89107                     188.30455
        </DataArray>
      </Points>
      <PointData>
        <DataArray type="Float32" Name="TranslationalVelocity" NumberOfComponents="3" format="ascii">
                      -0.24871                      -0.64369                       2.02516
                      -0.01584                      -1.00679                       3.20466
                       0.21569                      -1.38754                       4.37817
                       0.44462                      -1.80299                       5.53971
                       0.67198                      -2.24187                       6.69337
                       0.89875                      -2.69351                       7.84303
                       1.12598                      -3.14603                       8.99288
                       1.35507                      -3.58269                      10.14866
                       1.58666                      -3.99622                      11.31277
                       1.81867                      -4.41300                      12.47591
                       2.05146                      -4.82937                      13.63928
                       2.28568                      -5.23792                      14.80549
                       2.52213                      -5.62949                      15.97781
                       2.76031                      -6.01115                      17.15383
                       2.99929                      -6.39521                      18.32938
                       3.23912                      -6.78189                      19.50438
                       3.47989                      -7.17030                      20.67912
                       3.72164                      -7.56048                      21.85360
                       3.96447                      -7.95135                      23.02809
                       4.20846                      -8.34220                      24.20273
                       4.45364                      -8.73278                      25.37755
                       4.70003                      -9.12321                      26.55250
                       4.94763                      -9.51416                      27.72746
                       5.19647                      -9.90617                      28.90237
                       5.44658                     -10.29918                      30.07729
                       5.69798                     -10.69340                      31.25222
                       5.95071                     -11.08890                      32.42715
                       6.20481                     -11.48546                      33.60212
                       6.46038                     -11.88229                      34.77746
                       6.71747                     -12.27969                      35.95318
                       6.97612                     -12.67769                      37.12935
                       7.23636                     -13.07631                      38.30605
                       7.49824                     -13.47535                      39.48335
                       7.76180                     -13.87473                      40.66129
                       8.02705                     -14.27442                      41.83987
                       8.29405                     -14.67406                      43.01926
                       8.56285                     -15.07353                      44.19958
                       8.83346                     -15.47260                      45.38089
                       9.10589                     -15.87111                      46.56324
                       9.38015                     -16.26890                      47.74664
                       9.65617                     -16.66636                      48.93088
                       9.93390                     -17.06364                      50.11587
                      10.21328                     -17.46082                      51.30150
                      10.49429                     -17.85756                      52.48789
                      10.77683                     -18.25372                      53.67496
                      11.06081                     -18.64923                      54.86260
                      11.34606                     -19.04424                      56.05056
                      11.63240                     -19.43898                      57.23858
                      11.91962                     -19.83333                      58.42635
                      12.21274                     -20.15569                      59.63667
        </DataArray>
        <DataArray type="Float32" Name="RotationalVelocity" NumberOfComponents="3" format="ascii">
                       0.51642                      -0.00517                      -0.10356
                       0.51644                      -0.00517                      -0.10356
                       0.51647                      -0.00516                      -0.10360
                       0.51653                      -0.00513                      -0.10369
                       0.51661                      -0.00508                      -0.10382
                       0.51670                      -0.00502                      -0.10399
                       0.51680                      -0.00495                      -0.10419
                       0.51691                      -0.00487                      -0.10443
                       0.51701                      -0.00478                      -0.10469
                       0.51712                      -0.00468                      -0.10498
                       0.51722                      -0.00457                      -0.10530
                       0.51732                      -0.00445                      -0.10564
                       0.51741                      -0.00433                      -0.10599
                       0.51750                      -0.00420                      -0.10637
                       0.51758                      -0.00407                      -0.10676
                       0.51765                      -0.00393                      -0.10716
                       0.51771                      -0.00378                      -0.10758
                       0.51777                      -0.00363                      -0.10801
                       0.51782                      -0.00348                      -0.10846
                       0.51786                      -0.00332                      -0.10891
                       0.51790                      -0.00316                      -0.10938
                       0.51793                      -0.00300                      -0.10986
                       0.51796                      -0.00283                      -0.11035
                       0.51798                      -0.00266                      -0.11085
                       0.51800                      -0.00248                      -0.11136
                       0.51801                      -0.00230                      -0.11189
                       0.51802                      -0.00212                      -0.11242
                       0.51803                      -0.00193                      -0.11297
                       0.51804                      -0.00174                      -0.11352
                       0.51805                      -0.00155                      -0.11409
                       0.51805                      -0.00135                      -0.11466
                       0.51806                      -0.00115                      -0.11524
                       0.51807                      -0.00095                      -0.11584
                       0.51808                      -0.00074                      -0.11643
                       0.51808                      -0.00054                      -0.11704
                       0.51809                      -0.00033                      -0.11764
                       0.51810                      -0.00012                      -0.11825
                       0.51810                       0.00009                      -0.11886
                       0.51811                       0.00030                      -0.11946
                       0.51811                       0.00050                      -0.12006
                       0.51811                       0.00070                      -0.12065
                       0.51811                       0.00090                      -0.12122
                       0.51811                       0.00109                      -0.12177
                       0.51811                       0.00127                      -0.12230
                       0.51810                       0.00144                      -0.12280
                       0.51809                       0.00160                      -0.12327
                       0.51807                       0.00175                      -0.12369
                       0.51804                       0.00187                      -0.12406
                       0.51800                       0.00198                      -0.12437
                       0.51795                       0.00207                      -0.12464
        </DataArray>
        <DataArray type="Float32" Name="TranslationalAcceleration" NumberOfComponents="3" format="ascii">
                      -0.37208                      -1.01447                      -0.43517
                      -0.43798                      -1.63304                      -0.66894
                      -0.50660                      -2.24781                      -0.91110
                      -0.57981                      -2.85519                      -1.16969
                      -0.65662                      -3.45811                      -1.43864
                      -0.73605                      -4.05930                      -1.71224
                      -0.81703                      -4.66164                      -1.98421
                      -0.89793                      -5.26887                      -2.24585
                      -0.97807                      -5.88248                      -2.49328
                      -1.06024                      -6.49670                      -2.73975
                      -1.14410                      -7.11236                      -2.98333
                      -1.22889                      -7.73103                      -3.22021
                      -1.31362                      -8.35456                      -3.44565
                      -1.39899                      -8.98138                      -3.66325
                      -1.48619                      -9.60896                      -3.87933
                      -1.57512                     -10.23723                      -4.09408
                      -1.66551                     -10.86635                      -4.30709
                      -1.75716                     -11.49629                      -4.51849
                      -1.84966                     -12.12723                      -4.72780
                      -1.94264                     -12.75930                      -4.93480
                      -2.03569                     -13.39256                      -5.13945
                      -2.12841                     -14.02699                      -5.34193
                      -2.22039                     -14.66247                      -5.54264
                      -2.31116                     -15.29886                      -5.74193
                      -2.40015                     -15.93614                      -5.93980
                      -2.48679                     -16.57420                      -6.13643
                      -2.57043                     -17.21303                      -6.33190
                      -2.65034                     -17.85275                      -6.52617
                      -2.72570                     -18.49348                      -6.71886
                      -2.79577                     -19.13517                      -6.91012
                      -2.85975                     -19.77772                      -7.09996
                      -2.91685                     -20.42109                      -7.28837
                      -2.96623                     -21.06527                      -7.47527
                      -3.00707                     -21.71024                      -7.66061
                      -3.03855                     -22.35601                      -7.84443
                      -3.05988                     -23.00264                      -8.02656
                      -3.07027                     -23.65016                      -8.20697
                      -3.06901                     -24.29855                      -8.38563
                      -3.05543                     -24.94782                      -8.56254
                      -3.02898                     -25.59799                      -8.73777
                      -2.98925                     -26.24903                      -8.91169
                      -2.93593                     -26.90094                      -9.08457
                      -2.86883                     -27.55375                      -9.25665
                      -2.78787                     -28.20749                      -9.42794
                      -2.69318                     -28.86218                      -9.59865
                      -2.58510                     -29.51787                      -9.76909
                      -2.46423                     -30.17454                      -9.93973
                      -2.33144                     -30.83215                     -10.11117
                      -2.18785                     -31.49077                     -10.28396
                      -2.02594                     -32.15895                     -10.42024
        </DataArray>
        <DataArray type="Float32" Name="OrientationX" NumberOfComponents="3" format="ascii">
                       0.99052                      -0.05150                       0.12731
                       0.99055                      -0.05050                       0.12753
                       0.99098                      -0.04607                       0.12581
                       0.99204                      -0.03970                       0.11953
                       0.99348                      -0.03465                       0.10862
                       0.99508                      -0.03105                       0.09405
                       0.99662                      -0.02896                       0.07686
                       0.99791                      -0.02763                       0.05842
                       0.99888                      -0.02360                       0.04095
                       0.99953                      -0.01699                       0.02538
                       0.99987                      -0.01174                       0.01146
                       0.99995                      -0.00947                      -0.00101
                       0.99988                      -0.00890                      -0.01264
                       0.99968                      -0.00761                      -0.02400
                       0.99938                      -0.00598                      -0.03482
                       0.99897                      -0.00472                      -0.04522
                       0.99847                      -0.00398                      -0.05508
                       0.99794                      -0.00334                      -0.06405
                       0.99742                      -0.00181                      -0.07180
                       0.99693                       0.00086                      -0.07828
                       0.99647                       0.00446                      -0.08384
                       0.99600                       0.00793                      -0.08897
                       0.99551                       0.01005                      -0.09416
                       0.99499                       0.01091                      -0.09938
                       0.99445                       0.01057                      -0.10469
                       0.99389                       0.00950                      -0.10999
                       0.99337                       0.00995                      -0.11453
                       0.99292                       0.01224                      -0.11813
                       0.99250                       0.01483                      -0.12131
                       0.99208                       0.01655                      -0.12453
                       0.99162                       0.01690                      -0.12807
                       0.99112                       0.01597                      -0.13199
                       0.99056                       0.01393                      -0.13633
                       0.98992                       0.01107                      -0.14117
                       0.98922                       0.00896                      -0.14615
                       0.98846                       0.00855                      -0.15127
                       0.98755                       0.00850                      -0.15710
                       0.98658                       0.00810                      -0.16309
                       0.98561                       0.00723                      -0.16889
                       0.98470                       0.00566                      -0.17415
                       0.98394                       0.00368                      -0.17847
                       0.98353                       0.00114                      -0.18073
                       0.98335                      -0.00113                      -0.18170
                       0.98330                      -0.00293                      -0.18194
                       0.98336                      -0.00480                      -0.18163
                       0.98351                      -0.00666                      -0.18073
                       0.98379                      -0.00839                      -0.17911
                       0.98422                      -0.01027                      -0.17662
                       0.98483                      -0.01157                      -0.17316
                       0.98550                      -0.01381                      -0.16908
        </DataArray>
        <DataArray type="Float32" Name="OrientationY" NumberOfComponents="3" format="ascii">
                       0.13711                       0.31828                      -0.93803
                       0.13700                       0.31847                      -0.93798
                       0.13394                       0.31951                      -0.93807
                       0.12594                       0.32082                      -0.93873
                       0.11399                       0.32153                      -0.94001
                       0.09904                       0.32167                      -0.94166
                       0.08209                       0.32135                      -0.94340
                       0.06420                       0.32086                      -0.94495
                       0.04636                       0.32091                      -0.94597
                       0.02950                       0.32137                      -0.94649
                       0.01463                       0.32156                      -0.94678
                       0.00209                       0.32132                      -0.94697
                      -0.00912                       0.32091                      -0.94707
                      -0.02029                       0.32060                      -0.94700
                      -0.03107                       0.32034                      -0.94679
                      -0.04133                       0.32006                      -0.94649
                      -0.05092                       0.31976                      -0.94613
                      -0.05963                       0.31947                      -0.94572
                      -0.06747                       0.31927                      -0.94526
                      -0.07446                       0.31915                      -0.94478
                      -0.08087                       0.31906                      -0.94428
                      -0.08685                       0.31893                      -0.94379
                      -0.09244                       0.31871                      -0.94333
                      -0.09767                       0.31843                      -0.94290
                      -0.10260                       0.31811                      -0.94249
                      -0.10729                       0.31776                      -0.94208
                      -0.11175                       0.31745                      -0.94167
                      -0.11589                       0.31716                      -0.94126
                      -0.11974                       0.31684                      -0.94089
                      -0.12334                       0.31647                      -0.94055
                      -0.12682                       0.31606                      -0.94023
                      -0.13026                       0.31561                      -0.93990
                      -0.13375                       0.31514                      -0.93957
                      -0.13745                       0.31466                      -0.93920
                      -0.14154                       0.31415                      -0.93876
                      -0.14629                       0.31361                      -0.93821
                      -0.15184                       0.31304                      -0.93753
                      -0.15742                       0.31244                      -0.93680
                      -0.16269                       0.31183                      -0.93610
                      -0.16724                       0.31124                      -0.93550
                      -0.17077                       0.31066                      -0.93505
                      -0.17217                       0.31011                      -0.93498
                      -0.17243                       0.30955                      -0.93512
                      -0.17215                       0.30901                      -0.93535
                      -0.17131                       0.30852                      -0.93567
                      -0.16992                       0.30808                      -0.93606
                      -0.16789                       0.30771                      -0.93655
                      -0.16497                       0.30743                      -0.93716
                      -0.16129                       0.30724                      -0.93786
                      -0.15674                       0.30716                      -0.93866
        </DataArray>
        <DataArray type="Float32" Name="OrientationZ" NumberOfComponents="3" format="ascii">
                       0.00778                       0.94660                       0.32232
                       0.00675                       0.94659                       0.32238
                       0.00302                       0.94646                       0.32280
                      -0.00108                       0.94631                       0.32327
                      -0.00235                       0.94627                       0.32338
                      -0.00102                       0.94634                       0.32316
                       0.00262                       0.94652                       0.32264
                       0.00736                       0.94672                       0.32196
                       0.00918                       0.94681                       0.32165
                       0.00793                       0.94680                       0.32172
                       0.00743                       0.94682                       0.32169
                       0.00929                       0.94692                       0.32133
                       0.01249                       0.94707                       0.32079
                       0.01490                       0.94718                       0.32034
                       0.01681                       0.94728                       0.31996
                       0.01894                       0.94738                       0.31954
                       0.02137                       0.94749                       0.31907