<?xml version="1.0"?>
<VTKFile type="PolyData" version="0.1" byte_order="LittleEndian">
  <PolyData>
    <Piece NumberOfPoints="     50" NumberOfVerts="  0" NumberOfLines="     49"
           NumberOfStrips="  0" NumberOfPolys="      0">
      <Points>
        <DataArray type="Float32" NumberOfComponents="3" format="ascii">
                      18.17281                      -0.02983                     153.71734
                      18.47616                       0.20099                     156.07592
                      18.77436                       0.39610                     158.43744
                      19.05868                       0.52066                     160.80518
                      19.33691                       0.59739                     163.17671
                      19.61635                       0.64790                     165.54971
                      19.90369                       0.69614                     167.92178
                      20.20490                       0.77580                     170.28993
                      20.52074                       0.90132                     172.65308
                      20.83642                       1.01914                     175.01655
                      21.15184                       1.13658                     177.37990
                      21.47162                       1.26861                     179.74164
                      21.80341                       1.43394                     182.09955
                      22.14642                       1.61833                     184.45461
                      22.49752                       1.79711                     186.80878
                      22.85739                       1.96987                     189.16197
                      23.22681                       2.13846                     191.51392
                      23.60684                       2.30289                     193.86441
                      23.99599                       2.46524                     196.21352
                      24.39032                       2.62676                     198.56186
                      24.78721                       2.78790                     200.90994
                      25.18422                       2.94830                     203.25836
                      25.58417                       3.10681                     205.60683
                      25.99084                       3.26255                     207.95481
                      26.40662                       3.41578                     210.30189
                      26.83496                       3.56625                     212.64741
                      27.27593                       3.71382                     214.99137
                      27.72232                       3.85867                     217.33544
                      28.17259                       4.00230                     219.68008
                      28.62710                       4.14418                     222.02550
                      29.08997                       4.28446                     224.37092
                      29.56430                       4.42324                     226.71571
                      30.05379                       4.56105                     229.05896
                      30.56085                       4.69817                     231.39999
                      31.08789                       4.83474                     233.73807
                      31.62996                       4.97131                     236.07450
                      32.18533                       5.10813                     238.40981
                      32.75560                       5.24573                     240.74349
                      33.34131                       5.38449                     243.07527
                      33.94389                       5.52481                     245.40456
                      34.56422                       5.66598                     247.73088
                      35.20175                       5.80770                     250.05416
                      35.85621                       5.94981                     252.37417
                      36.52444                       6.09293                     254.69161
                      37.20597                       6.23730                     257.00623
                      37.89979                       6.38303                     259.31783
                      38.60485                       6.52981                     261.62620
                      39.31905                       6.67712                     263.93139
                      40.04188                       6.82517                     266.23265
                      40.77009                       7.11546                     268.52234
        </DataArray>
      </Points>
      <PointData>
        <DataArray type="Float32" Name="TranslationalVelocity" NumberOfComponents="3" format="ascii">
                      -0.27172                      -3.12557                       0.20959
                      -0.23454                      -4.93901                       0.38228
                      -0.20227                      -6.75416                       0.52818
                      -0.17968                      -8.57246                       0.62113
                      -0.16365                     -10.39332                       0.67817
                      -0.15118                     -12.21613                       0.71547
                      -0.13897                     -14.04010                       0.75101
                      -0.12233                     -15.86390                       0.81013
                      -0.09924                     -17.68685                       0.90374
                      -0.07702                     -19.51095                       0.99154
                      -0.05462                     -21.33589                       1.07905
                      -0.02994                     -23.16117                       1.17756
                      -0.00038                     -24.98618                       1.30116
                       0.03214                     -26.81153                       1.43915
                       0.06425                     -28.63824                       1.57291
                       0.09590                     -30.46632                       1.70212
                       0.12737                     -32.29565                       1.82815
                       0.15868                     -34.12618                       1.95100
                       0.19012                     -35.95775                       2.07225
                       0.22186                     -37.79023                       2.19284
                       0.25397                     -39.62363                       2.31312
                       0.28641                     -41.45805                       2.43283
                       0.31899                     -43.29364                       2.55109
                       0.35160                     -45.13051                       2.66722
                       0.38424                     -46.96868                       2.78140
                       0.41685                     -48.80812                       2.89340
                       0.44940                     -50.64884                       3.00314
                       0.48191                     -52.49114                       3.11078
                       0.51455                     -54.33517                       3.21748
                       0.54722                     -56.18116                       3.32282
                       0.57992                     -58.02913                       3.42690
                       0.61263                     -59.87906                       3.52979
                       0.64538                     -61.73081                       3.63187
                       0.67817                     -63.58425                       3.73333
                       0.71100                     -65.43917                       3.83430
                       0.74390                     -67.29594                       3.93519
                       0.77690                     -69.15473                       4.03623
                       0.81002                     -71.01543                       4.13782
                       0.84330                     -72.87793                       4.24025
                       0.87676                     -74.74199                       4.34382
                       0.91027                     -76.60736                       4.44799
                       0.94376                     -78.47391                       4.55256
                       0.97719                     -80.34139                       4.65738
                       1.01060                     -82.20984                       4.76297
                       1.04402                     -84.07892                       4.86951
                       1.07744                     -85.94823                       4.97710
                       1.11079                     -87.81729                       5.08551
                       1.14399                     -89.68569                       5.19435
                       1.17706                     -91.55254                       5.30377
                       1.22971                     -93.41125                       5.52228
        </DataArray>
        <DataArray type="Float32" Name="RotationalVelocity" NumberOfComponents="3" format="ascii">
                       0.75115                       0.00229                      -0.13765
                       0.75121                       0.00229                      -0.13766
                       0.75133                       0.00229                      -0.13767
                       0.75153                       0.00230                      -0.13770
                       0.75178                       0.00231                      -0.13773
                       0.75208                       0.00234                      -0.13776
                       0.75242                       0.00237                      -0.13780
                       0.75279                       0.00242                      -0.13785
                       0.75317                       0.00249                      -0.13789
                       0.75356                       0.00258                      -0.13794
                       0.75396                       0.00268                      -0.13799
                       0.75436                       0.00280                      -0.13805
                       0.75475                       0.00293                      -0.13810
                       0.75514                       0.00308                      -0.13815
                       0.75552                       0.00323                      -0.13820
                       0.75588                       0.00339                      -0.13826
                       0.75624                       0.00356                      -0.13831
                       0.75658                       0.00373                      -0.13836
                       0.75691                       0.00391                      -0.13840
                       0.75723                       0.00409                      -0.13845
                       0.75754                       0.00426                      -0.13850
                       0.75784                       0.00443                      -0.13854
                       0.75814                       0.00460                      -0.13859
                       0.75843                       0.00477                      -0.13863
                       0.75872                       0.00492                      -0.13867
                       0.75901                       0.00507                      -0.13872
                       0.75931                       0.00521                      -0.13876
                       0.75961                       0.00533                      -0.13880
                       0.75992                       0.00545                      -0.13884
                       0.76024                       0.00555                      -0.13889
                       0.76057                       0.00565                      -0.13893
                       0.76091                       0.00572                      -0.13897
                       0.76126                       0.00579                      -0.13902
                       0.76163                       0.00584                      -0.13906
                       0.76201                       0.00588                      -0.13911
                       0.76241                       0.00590                      -0.13915
                       0.76282                       0.00591                      -0.13920
                       0.76323                       0.00591                      -0.13924
                       0.76365                       0.00590                      -0.13929
                       0.76407                       0.00588                      -0.13934
                       0.76449                       0.00585                      -0.13938
                       0.76489                       0.00580                      -0.13942
                       0.76528                       0.00575                      -0.13946
                       0.76565                       0.00569                      -0.13950
                       0.76598                       0.00561                      -0.13953
                       0.76626                       0.00553                      -0.13956
                       0.76648                       0.00545                      -0.13958
                       0.76663                       0.00536                      -0.13959
                       0.76670                       0.00527                      -0.13959
                       0.76668                       0.00518                      -0.13958
        </DataArray>
        <DataArray type="Float32" Name="TranslationalAcceleration" NumberOfComponents="3" format="ascii">
                      -0.40413                      -0.13718                      -2.25141
                      -0.65351                      -0.27047                      -3.61383
                      -0.90322                      -0.38298                      -4.97764
                      -1.15359                      -0.45441                      -6.34405
                      -1.40452                      -0.49796                      -7.71273
                      -1.65591                      -0.52621                      -9.08336
                      -1.90764                      -0.55311                     -10.45544
                      -2.15947                      -0.59839                     -11.82804
                      -2.41130                      -0.67057                     -13.20072
                      -2.66352                      -0.73832                     -14.57495
                      -2.91609                      -0.80594                     -15.95053
                      -3.16891                      -0.88223                     -17.32708
                      -3.42185                      -0.97822                     -18.70415
                      -3.67501                      -1.08559                     -20.08219
                      -3.92861                      -1.18981                     -21.46193
                      -4.18264                      -1.29062                     -22.84335
                      -4.43708                      -1.38910                     -24.22633
                      -4.69193                      -1.48523                     -25.61084
                      -4.94716                      -1.58025                     -26.99670
                      -5.20276                      -1.67487                     -28.38383
                      -5.45871                      -1.76936                     -29.77221
                      -5.71504                      -1.86353                     -31.16189
                      -5.97179                      -1.95666                     -32.55299
                      -6.22896                      -2.04822                     -33.94557
                      -6.48657                      -2.13834                     -35.33964
                      -6.74462                      -2.22684                     -36.73516
                      -7.00312                      -2.31364                     -38.13217
                      -7.26213                      -2.39886                     -39.53088
                      -7.52166                      -2.48339                     -40.93145
                      -7.78177                      -2.56693                     -42.33407
                      -8.04247                      -2.64952                     -43.73876
                      -8.30376                      -2.73124                     -45.14552
                      -8.56564                      -2.81237                     -46.55428
                      -8.82810                      -2.89306                     -47.96495
                      -9.09111                      -2.97340                     -49.37741
                      -9.35475                      -3.05374                     -50.79195
                      -9.61903                      -3.13425                     -52.20875
                      -9.88396                      -3.21523                     -53.62772
                     -10.14951                      -3.29693                     -55.04882
                     -10.41567                      -3.37959                     -56.47184
                     -10.68239                      -3.46278                     -57.89662
                     -10.94965                      -3.54634                     -59.32302
                     -11.21742                      -3.63016                     -60.75083
                     -11.48568                      -3.71464                     -62.18005
                     -11.75437                      -3.79992                     -63.61035
                     -12.02339                      -3.88608                     -65.04135
                     -12.29266                      -3.97292                     -66.47257
                     -12.56208                      -4.06011                     -67.90356
                     -12.83145                      -4.14777                     -69.33346
                     -13.09920                      -4.32180                     -70.75716
        </DataArray>
        <DataArray type="Float32" Name="OrientationX" NumberOfComponents="3" format="ascii">
                       0.95100                      -0.29182                      -0.10217
                       0.95117                      -0.29164                      -0.10114
                       0.95247                      -0.28846                      -0.09798
                       0.95512                      -0.28050                      -0.09518
                       0.95841                      -0.26890                      -0.09565
                       0.96197                      -0.25456                      -0.09909
                       0.96547                      -0.23839                      -0.10510
                       0.96870                      -0.22134                      -0.11239
                       0.97194                      -0.20411                      -0.11693
                       0.97508                      -0.18760                      -0.11843
                       0.97751                      -0.17305                      -0.12057
                       0.97903                      -0.16092                      -0.12490
                       0.98001                      -0.15018                      -0.13050
                       0.98093                      -0.13940                      -0.13540
                       0.98174                      -0.12897                      -0.13984
                       0.98232                      -0.11905                      -0.14451
                       0.98265                      -0.10980                      -0.14948
                       0.98281                      -0.10141                      -0.15428
                       0.98300                      -0.09380                      -0.15785
                       0.98329                      -0.08694                      -0.15995
                       0.98367                      -0.08059                      -0.16093
                       0.98397                      -0.07467                      -0.16194
                       0.98398                      -0.06922                      -0.16428
                       0.98372                      -0.06420                      -0.16785
                       0.98318                      -0.05956                      -0.17264
                       0.98245                      -0.05520                      -0.17815
                       0.98196                      -0.05098                      -0.18210
                       0.98179                      -0.04697                      -0.18409
                       0.98164                      -0.04323                      -0.18576
                       0.98131                      -0.03979                      -0.18830
                       0.98066                      -0.03656                      -0.19230
                       0.97970                      -0.03346                      -0.19766
                       0.97844                      -0.03039                      -0.20427
                       0.97693                      -0.02715                      -0.21184
                       0.97548                      -0.02351                      -0.21884
                       0.97431                      -0.01909                      -0.22439
                       0.97312                      -0.01388                      -0.22988
                       0.97177                      -0.00865                      -0.23576
                       0.97027                      -0.00376                      -0.24198
                       0.96861                       0.00036                      -0.24859
                       0.96689                       0.00345                      -0.25517
                       0.96521                       0.00439                      -0.26144
                       0.96372                       0.00423                      -0.26690
                       0.96242                       0.00355                      -0.27156
                       0.96118                       0.00234                      -0.27591
                       0.96004                       0.00059                      -0.27987
                       0.95905                      -0.00177                      -0.28324
                       0.95817                      -0.00498                      -0.28617
                       0.95761                      -0.00889                      -0.28794
                       0.95690                      -0.01367                      -0.29008
        </DataArray>
        <DataArray type="Float32" Name="OrientationY" NumberOfComponents="3" format="ascii">
                       0.28206                       0.95418                      -0.09991
                       0.28198                       0.95423                      -0.09966
                       0.27917                       0.95519                      -0.09834
                       0.27161                       0.95757                      -0.09641
                       0.26014                       0.96091                      -0.09482
                       0.24568                       0.96483                      -0.09352
                       0.22920                       0.96898                      -0.09242
                       0.21175                       0.97305                      -0.09127
                       0.19439                       0.97684                      -0.08938
                       0.17801                       0.98017                      -0.08701
                       0.16352                       0.98287                      -0.08499
                       0.15124                       0.98496                      -0.08356
                       0.14023                       0.98668                      -0.08241
                       0.12926                       0.98829                      -0.08108
                       0.11867                       0.98973                      -0.07968
                       0.10858                       0.99100                      -0.07833
                       0.09914                       0.99209                      -0.07704
                       0.09056                       0.99300                      -0.07581
                       0.08285                       0.99377                      -0.07459
                       0.07598                       0.99440                      -0.07340
                       0.06969                       0.99495                      -0.07223
                       0.06383                       0.99542                      -0.07116
                       0.05833                       0.99583                      -0.07021
                       0.05318                       0.99617                      -0.06937
                       0.04832                       0.99647                      -0.06861
                       0.04369                       0.99673                      -0.06790
                       0.03931                       0.99697                      -0.06717
                       0.03524                       0.99717                      -0.06646
                       0.03146                       0.99734                      -0.06581
                       0.02792                       0.99748                      -0.06524
                       0.02450                       0.99760                      -0.06472
                       0.02112                       0.99771                      -0.06422
                       0.01769                       0.99781                      -0.06371
                       0.01404                       0.99791                      -0.06314
                       0.01003                       0.99800                      -0.06247
                       0.00536                       0.99808                      -0.06166
                      -0.00010                       0.99816                      -0.06067
                      -0.00559                       0.99820                      -0.05965
                      -0.01076                       0.99822                      -0.05869
                      -0.01523                       0.99821                      -0.05787
                      -0.01868                       0.99818                      -0.05728
                      -0.02004                       0.99816                      -0.05723
                      -0.02030                       0.99814                      -0.05748
                      -0.02002                       0.99812                      -0.05789
                      -0.01920                       0.99811                      -0.05843
                      -0.01784                       0.99809                      -0.05910
                      -0.01585                       0.99808                      -0.05991
                      -0.01301                       0.99806                      -0.06093
                      -0.00942                       0.99802                      -0.06213
                      -0.00499                       0.99797                      -0.06352
        </DataArray>
        <DataArray type="Float32" Name="OrientationZ" NumberOfComponents="3" format="ascii">
                       0.12665                       0.06619                       0.98974
                       0.12558                       0.06627                       0.98987
                       0.12196                       0.06631                       0.99032
                       0.11818                       0.06623                       0.99078
                       0.11741                       0.06599                       0.99089
                       0.11941                       0.06562                       0.99067
                       0.12387                       0.06514                       0.99016
                       0.12957                       0.06461                       0.98946
                       0.13246                       0.06414                       0.98911
                       0.13240                       0.06376                       0.98914
                       0.13321                       0.06336                       0.98906
                       0.13646                       0.06292                       0.98864
                       0.14114                       0.06246                       0.98802
                       0.14512                       0.06203                       0.98747
                       0.14868                       0.06164                       0.98696
                       0.15253                       0.06125                       0.98640
                       0.15676                       0.06088                       0.98576