<?xml version="1.0"?>
<VTKFile type="PolyData" version="0.1" byte_order="LittleEndian">
  <PolyData>
    <Piece NumberOfPoints="     50" NumberOfVerts="  0" NumberOfLines="     49"
           NumberOfStrips="  0" NumberOfPolys="      0">
      <Points>
        <DataArray type="Float32" NumberOfComponents="3" format="ascii">
                      23.77213                      -0.04870                     146.05341
                      23.23054                      -0.12108                     143.72755
                      22.68417                      -0.15757                     141.40292
                      22.12466                      -0.12309                     139.08164
                      21.55936                      -0.04055                     136.76191
                      20.99520                       0.06829                     134.44206
                      20.43847                       0.17934                     132.12055
                      19.89473                       0.25875                     129.79605
                      19.36457                       0.29204                     127.46841
                      18.83388                       0.33312                     125.14111
                      18.30243                       0.37465                     122.81416
                      17.77459                       0.40157                     120.48643
                      17.25768                       0.39502                     118.15618
                      16.75104                       0.36927                     115.82363
                      16.25176                       0.34909                     113.48955
                      15.76050                       0.33487                     111.15384
                      15.27798                       0.32475                     108.81634
                      14.80526                       0.31869                     106.47689
                      14.34080                       0.31463                     104.13580
                      13.88063                       0.31140                     101.79383
                      13.42208                       0.30860                      99.45140
                      12.96262                       0.30664                      97.10885
                      12.50501                       0.30664                      94.76552
                      12.05294                       0.30940                      92.42066
                      11.60875                       0.31463                      90.07380
                      11.17587                       0.32252                      87.72434
                      10.75432                       0.33320                      85.37226
                      10.33672                       0.34668                      83.01858
                       9.92136                       0.36149                      80.66331
                       9.50847                       0.37819                      78.30621
                       9.10213                       0.39657                      75.94651
                       8.70541                       0.41646                      73.58371
                       8.32200                       0.43726                      71.21730
                       7.95436                       0.45864                      68.84701
                       7.60492                       0.48040                      66.47265
                       7.26856                       0.50213                      64.09474
                       6.94342                       0.52365                      61.71338
                       6.63112                       0.54440                      59.32843
                       6.33223                       0.56398                      56.93988
                       6.04826                       0.58197                      54.54776
                       5.78020                       0.59903                      52.15217
                       5.52760                       0.61546                      49.75339
                       5.29030                       0.63141                      47.35169
                       5.06511                       0.64631                      44.94749
                       4.85172                       0.65991                      42.54116
                       4.64934                       0.67204                      40.13316
                       4.45716                       0.68298                      37.72408
                       4.27333                       0.69324                      35.31460
                       4.09781                       0.70250                      32.90552
                       3.92606                       0.56903                      30.49625
        </DataArray>
      </Points>
      <PointData>
        <DataArray type="Float32" Name="TranslationalVelocity" NumberOfComponents="3" format="ascii">
                       0.44759                       2.88849                       0.09473
                       0.41960                       4.57555                       0.04875
                       0.39604                       6.26217                       0.02782
                       0.38125                       7.94771                       0.05643
                       0.37237                       9.63237                       0.11854
                       0.36667                      11.31637                       0.19891
                       0.36113                      12.99988                       0.28070
                       0.35153                      14.68310                       0.34035
                       0.33607                      16.36600                       0.36780
                       0.32138                      18.04785                       0.40068
                       0.30650                      19.72869                       0.43391
                       0.28955                      21.40874                       0.45700
                       0.26817                      23.08832                       0.45684
                       0.24410                      24.76738                       0.44335
                       0.22035                      26.44574                       0.43375
                       0.19694                      28.12343                       0.42831
                       0.17362                      29.80049                       0.42572
                       0.15038                      31.47694                       0.42595
                       0.12694                      33.15277                       0.42756
                       0.10317                      34.82796                       0.42981
                       0.07902                      36.50257                       0.43243
                       0.05454                      38.17670                       0.43574
                       0.02986                      39.85047                       0.44048
                       0.00508                      41.52397                       0.44716
                      -0.01984                      43.19723                       0.45557
                      -0.04488                      44.87026                       0.46577
                      -0.07000                      46.54306                       0.47784
                      -0.09518                      48.21581                       0.49188
                      -0.12059                      49.88868                       0.50689
                      -0.14615                      51.56181                       0.52324
                      -0.17188                      53.23517                       0.54074
                      -0.19778                      54.90874                       0.55922
                      -0.22392                      56.58236                       0.57822
                      -0.25032                      58.25590                       0.59748
                      -0.27699                      59.92914                       0.61680
                      -0.30395                      61.60233                       0.63598
                      -0.33121                      63.27559                       0.65489
                      -0.35881                      64.94878                       0.67314
                      -0.38678                      66.62183                       0.69043
                      -0.41516                      68.29452                       0.70645
                      -0.44384                      69.96665                       0.72164
                      -0.47277                      71.63811                       0.73619
                      -0.50188                      73.30875                       0.75022
                      -0.53123                      74.97873                       0.76336
                      -0.56082                      76.64790                       0.77543
                      -0.59062                      78.31614                       0.78635
                      -0.62057                      79.98328                       0.79630
                      -0.65058                      81.64926                       0.80564
                      -0.68065                      83.31373                       0.81418
                      -0.72774                      84.97788                       0.72519
        </DataArray>
        <DataArray type="Float32" Name="RotationalVelocity" NumberOfComponents="3" format="ascii">
                       0.69664                       0.00820                      -0.12337
                       0.69659                       0.00820                      -0.12335
                       0.69648                       0.00820                      -0.12333
                       0.69630                       0.00821                      -0.12328
                       0.69607                       0.00822                      -0.12323
                       0.69580                       0.00825                      -0.12316
                       0.69550                       0.00829                      -0.12308
                       0.69517                       0.00835                      -0.12300
                       0.69483                       0.00843                      -0.12291
                       0.69447                       0.00852                      -0.12283
                       0.69411                       0.00862                      -0.12274
                       0.69376                       0.00874                      -0.12265
                       0.69340                       0.00888                      -0.12256
                       0.69305                       0.00902                      -0.12247
                       0.69272                       0.00918                      -0.12239
                       0.69239                       0.00934                      -0.12230
                       0.69207                       0.00952                      -0.12222
                       0.69176                       0.00969                      -0.12215
                       0.69147                       0.00987                      -0.12207
                       0.69118                       0.01006                      -0.12200
                       0.69090                       0.01024                      -0.12193
                       0.69063                       0.01043                      -0.12186
                       0.69037                       0.01061                      -0.12180
                       0.69010                       0.01079                      -0.12173
                       0.68984                       0.01096                      -0.12167
                       0.68958                       0.01113                      -0.12160
                       0.68931                       0.01130                      -0.12153
                       0.68904                       0.01146                      -0.12147
                       0.68877                       0.01161                      -0.12140
                       0.68848                       0.01175                      -0.12133
                       0.68818                       0.01189                      -0.12125
                       0.68788                       0.01201                      -0.12118
                       0.68756                       0.01213                      -0.12110
                       0.68723                       0.01224                      -0.12101
                       0.68688                       0.01234                      -0.12093
                       0.68653                       0.01243                      -0.12084
                       0.68617                       0.01251                      -0.12075
                       0.68579                       0.01259                      -0.12065
                       0.68542                       0.01265                      -0.12056
                       0.68504                       0.01271                      -0.12047
                       0.68467                       0.01275                      -0.12037
                       0.68431                       0.01279                      -0.12028
                       0.68396                       0.01282                      -0.12019
                       0.68363                       0.01283                      -0.12011
                       0.68334                       0.01284                      -0.12004
                       0.68309                       0.01284                      -0.11998
                       0.68289                       0.01282                      -0.11993
                       0.68275                       0.01280                      -0.11989
                       0.68270                       0.01277                      -0.11988
                       0.68271                       0.01273                      -0.11988
        </DataArray>
        <DataArray type="Float32" Name="TranslationalAcceleration" NumberOfComponents="3" format="ascii">
                       0.27152                      -0.03947                       1.94937
                       0.47993                      -0.00530                       3.12473
                       0.68849                       0.01085                       4.29960
                       0.89735                      -0.00856                       5.47332
                       1.10641                      -0.05199                       6.64599
                       1.31556                      -0.10846                       7.81770
                       1.52468                      -0.16590                       8.98856
                       1.73357                      -0.20737                      10.15871
                       1.94215                      -0.22570                      11.32812
                       2.15070                      -0.24787                      12.49617
                       2.35918                      -0.27020                      13.66286
                       2.56753                      -0.28521                      14.82840
                       2.77567                      -0.28354                      15.99303
                       2.98370                      -0.27230                      17.15671
                       3.19178                      -0.26379                      18.31928
                       3.39994                      -0.25821                      19.48079
                       3.60818                      -0.25461                      20.64126
                       3.81654                      -0.25295                      21.80075
                       4.02500                      -0.25223                      22.95926
                       4.23359                      -0.25187                      24.11680
                       4.44232                      -0.25170                      25.27341
                       4.65124                      -0.25193                      26.42916
                       4.86040                      -0.25310                      27.58415
                       5.06983                      -0.25555                      28.73843
                       5.27956                      -0.25913                      29.89204
                       5.48963                      -0.26390                      31.04499
                       5.70007                      -0.26991                      32.19728
                       5.91092                      -0.27720                      33.34898
                       6.12222                      -0.28507                      34.50020
                       6.33403                      -0.29378                      35.65100
                       6.54637                      -0.30319                      36.80135
                       6.75927                      -0.31318                      37.95122
                       6.97273                      -0.32344                      39.10049
                       7.18677                      -0.33377                      40.24906
                       7.40137                      -0.34405                      41.39676
                       7.61661                      -0.35412                      42.54371
                       7.83250                      -0.36391                      43.68998
                       8.04906                      -0.37313                      44.83546
                       8.26628                      -0.38158                      45.98008
                       8.48417                      -0.38906                      47.12371
                       8.70270                      -0.39588                      48.26623
                       8.92188                      -0.40219                      49.40758
                       9.14169                      -0.40808                      50.54768
                       9.36215                      -0.41329                      51.68668
                       9.58322                      -0.41772                      52.82453
                       9.80486                      -0.42130                      53.96125
                      10.02702                      -0.42418                      55.09682
                      10.24968                      -0.42663                      56.23133
                      10.47272                      -0.42851                      57.36472
                      10.69488                      -0.36178                      58.49822
        </DataArray>
        <DataArray type="Float32" Name="OrientationX" NumberOfComponents="3" format="ascii">
                       0.93571                       0.27736                      -0.21799
                       0.93551                       0.27724                      -0.21901
                       0.93552                       0.27427                      -0.22264
                       0.93678                       0.26651                      -0.22674
                       0.93965                       0.25488                      -0.22824
                       0.94372                       0.24031                      -0.22727
                       0.94855                       0.22375                      -0.22402
                       0.95356                       0.20622                      -0.21954
                       0.95760                       0.18870                      -0.21768
                       0.96052                       0.17210                      -0.21860
                       0.96304                       0.15742                      -0.21858
                       0.96555                       0.14502                      -0.21605
                       0.96803                       0.13391                      -0.21208
                       0.97022                       0.12282                      -0.20876
                       0.97215                       0.11211                      -0.20583
                       0.97395                       0.10189                      -0.20257
                       0.97566                       0.09232                      -0.19892
                       0.97716                       0.08362                      -0.19534
                       0.97829                       0.07579                      -0.19289
                       0.97902                       0.06880                      -0.19180
                       0.97945                       0.06239                      -0.19178
                       0.97983                       0.05642                      -0.19169
                       0.98042                       0.05083                      -0.19025
                       0.98120                       0.04559                      -0.18754
                       0.98216                       0.04064                      -0.18360
                       0.98321                       0.03592                      -0.17890
                       0.98393                       0.03144                      -0.17577
                       0.98427                       0.02730                      -0.17457
                       0.98452                       0.02346                      -0.17368
                       0.98491                       0.01987                      -0.17192
                       0.98553                       0.01638                      -0.16868
                       0.98637                       0.01293                      -0.16406
                       0.98736                       0.00942                      -0.15820
                       0.98846                       0.00569                      -0.15135
                       0.98941                       0.00159                      -0.14511
                       0.99009                      -0.00319                      -0.14037
                       0.99071                      -0.00876                      -0.13573
                       0.99132                      -0.01437                      -0.13068
                       0.99193                      -0.01966                      -0.12525
                       0.99256                      -0.02422                      -0.11933
                       0.99317                      -0.02775                      -0.11334
                       0.99378                      -0.02910                      -0.10752
                       0.99431                      -0.02931                      -0.10243
                       0.99476                      -0.02895                      -0.09810
                       0.99518                      -0.02803                      -0.09401
                       0.99556                      -0.02655                      -0.09026
                       0.99591                      -0.02442                      -0.08704
                       0.99622                      -0.02141                      -0.08417
                       0.99644                      -0.01763                      -0.08239
                       0.99670                      -0.01300                      -0.08012
        </DataArray>
        <DataArray type="Float32" Name="OrientationY" NumberOfComponents="3" format="ascii">
                       0.27007                      -0.96077                      -0.06315
                       0.26990                      -0.96080                      -0.06337
                       0.26677                      -0.96165                      -0.06371
                       0.25894                      -0.96383                      -0.06306
                       0.24752                      -0.96697                      -0.06080
                       0.23339                      -0.97070                      -0.05727
                       0.21742                      -0.97465                      -0.05287
                       0.20053                      -0.97850                      -0.04818
                       0.18347                      -0.98203                      -0.04418
                       0.16718                      -0.98508                      -0.04095
                       0.15280                      -0.98753                      -0.03801
                       0.14072                      -0.98942                      -0.03525
                       0.12993                      -0.99099                      -0.03266
                       0.11913                      -0.99242                      -0.03023
                       0.10867                      -0.99368                      -0.02798
                       0.09869                      -0.99478                      -0.02585
                       0.08935                      -0.99571                      -0.02387
                       0.08085                      -0.99648                      -0.02212
                       0.07317                      -0.99711                      -0.02066
                       0.06629                      -0.99761                      -0.01946
                       0.05997                      -0.99803                      -0.01842
                       0.05408                      -0.99838                      -0.01744
                       0.04858                      -0.99868                      -0.01647
                       0.04345                      -0.99894                      -0.01550
                       0.03862                      -0.99915                      -0.01457
                       0.03402                      -0.99933                      -0.01367
                       0.02964                      -0.99948                      -0.01286
                       0.02557                      -0.99960                      -0.01215
                       0.02180                      -0.99970                      -0.01148
                       0.01828                      -0.99977                      -0.01082
                       0.01488                      -0.99984                      -0.01016
                       0.01153                      -0.99989                      -0.00950
                       0.00813                      -0.99993                      -0.00882
                       0.00451                      -0.99996                      -0.00813
                       0.00052                      -0.99997                      -0.00739
                      -0.00415                      -0.99997                      -0.00655
                      -0.00961                      -0.99994                      -0.00559
                      -0.01510                      -0.99988                      -0.00464
                      -0.02029                      -0.99979                      -0.00376
                      -0.02475                      -0.99969                      -0.00299
                      -0.02820                      -0.99960                      -0.00237
                      -0.02949                      -0.99956                      -0.00200
                      -0.02964                      -0.99956                      -0.00175
                      -0.02924                      -0.99957                      -0.00154
                      -0.02828                      -0.99960                      -0.00140
                      -0.02678                      -0.99964                      -0.00133
                      -0.02463                      -0.99970                      -0.00134
                      -0.02161                      -0.99977                      -0.00146
                      -0.01783                      -0.99984                      -0.00167
                      -0.01320                      -0.99991                      -0.00199
        </DataArray>
        <DataArray type="Float32" Name="OrientationZ" NumberOfComponents="3" format="ascii">
                      -0.22695                       0.00022                      -0.97391
                      -0.22800                       0.00017                      -0.97366
                      -0.23157                       0.00021                      -0.97282
                      -0.23534                       0.00036                      -0.97191
                      -0.23620                       0.00064                      -0.97170
                      -0.23437                       0.00101                      -0.97215
                      -0.23017                       0.00144                      -0.97315
                      -0.22475                       0.00192                      -0.97441
                      -0.22211                       0.00237                      -0.97502
                      -0.22239                       0.00279                      -0.97495
                      -0.22183                       0.00321                      -0.97508
                      -0.21888                       0.00364                      -0.97574
                      -0.21454                       0.00406                      -0.97671
                      -0.21089                       0.00446                      -0.97750
                      -0.20766                       0.00483                      -0.97819
                      -0.20415                       0.00519                      -0.97893
                      -0.20028                       0.00552                      -0.97972