<?xml version="1.0"?>
<VTKFile type="PolyData" version="0.1" byte_order="LittleEndian">
  <PolyData>
    <Piece NumberOfPoints="      3" NumberOfVerts="  0" NumberOfLines="      2"
           NumberOfStrips="  0" NumberOfPolys="      0">
      <Points>
        <DataArray type="Float32" NumberOfComponents="3" format="ascii">
                      34.11286                      -0.87588                     147.81948
                      34.11323                      -0.87592                     147.82446
                      34.11250                      -0.87584                     147.81449
        </DataArray>
      </Points>
      <PointData>
        <DataArray type="Float32" Name="TranslationalVelocity" NumberOfComponents="3" format="ascii">
                       0.10167                       0.04171                       0.05077
                       0.10167                       0.04171                       0.05077
                       0.10167                       0.04171                       0.05077
        </DataArray>
        <DataArray type="Float32" Name="RotationalVelocity" NumberOfComponents="3" format="ascii">
                      -0.00035                      -0.00012                      -0.00033
                      -0.00035                      -0.00012                      -0.00033
                      -0.00035                      -0.00012                      -0.00033
        </DataArray>
        <DataArray type="Float32" Name="TranslationalAcceleration" NumberOfComponents="3" format="ascii">
                      -0.00731                       0.01905                      -0.00679
                      -0.00731                       0.01905                      -0.00679
                      -0.00731                       0.01905                      -0.00679
        </DataArray>
        <DataArray type="Float32" Name="RotationalAcceleration" NumberOfComponents="3" format="ascii">
                      -0.00021                       0.00041                      -0.00030
                      -0.00021                       0.00041                      -0.00030
                      -0.00021                       0.00041                      -0.00030
        </DataArray>
        <DataArray type="Float32" Name="OrientationX" NumberOfComponents="3" format="ascii">
                       0.99735                       0.00505                      -0.07260
                       0.99735                       0.00505                      -0.07260
                       0.99735                       0.00505                      -0.07260
        </DataArray>
        <DataArray type="Float32" Name="OrientationY" NumberOfComponents="3" format="ascii">
                      -0.00442                       0.99995                       0.00890
                      -0.00442                       0.99995                       0.00890
                      -0.00442                       0.99995                       0.00890
        </DataArray>
        <DataArray type="Float32" Name="OrientationZ" NumberOfComponents="3" format="ascii">
                       0.07264                      -0.00855                       0.99732
                       0.07264                      -0.00855                       0.99732
                       0.07264                      -0.00855                       0.99732
        </DataArray>
      </PointData>
      <Lines>
        <DataArray type="Int32" Name="connectivity" format="ascii">
      0      1
      2      0
        </DataArray>
        <DataArray type="Int32" Name="offsets" format="ascii">
      2
      4
        </DataArray>
      </Lines>
    </Piece>
  </PolyData>
</VTKFile>
