<?xml version="1.0"?>
<VTKFile type="PolyData" version="0.1" byte_order="LittleEndian">
  <PolyData>
    <Piece NumberOfPoints="     50" NumberOfVerts="  0" NumberOfLines="     49"
           NumberOfStrips="  0" NumberOfPolys="      0">
      <Points>
        <DataArray type="Float32" NumberOfComponents="3" format="ascii">
                       5.93646                      -2.92646                     146.58946
                       5.40077                      -4.07669                     144.56507
                       4.85536                      -5.19490                     142.52645
                       4.28659                      -6.25000                     140.46102
                       3.70451                      -7.26226                     138.37674
                       3.11860                      -8.25098                     136.28120
                       2.53813                      -9.23750                     134.18314
                       1.97299                     -10.25191                     132.09572
                       1.42552                     -11.30709                     130.02508
                       0.87407                     -12.35521                     127.95198
                       0.31922                     -13.40283                     125.87969
                      -0.23279                     -14.46331                     123.81346
                      -0.77229                     -15.55335                     121.75941
                      -1.30209                     -16.66023                     119.71162
                      -1.82869                     -17.76192                     117.66031
                      -2.35163                     -18.85803                     115.60517
                      -2.87011                     -19.95023                     113.54688
                      -3.38330                     -21.03849                     111.48522
                      -3.89260                     -22.12473                     109.42155
                      -4.40196                     -23.21012                     107.35739
                      -4.91418                     -24.29511                     105.29359
                      -5.43202                     -25.37949                     103.23057
                      -5.95317                     -26.46221                     101.16712
                      -6.47435                     -27.54246                      99.10199
                      -6.99350                     -28.62045                      97.03474
                      -7.50749                     -29.69587                      94.96449
                      -8.01663                     -30.76863                      92.89123
                      -8.52853                     -31.83905                      90.81664
                      -9.04500                     -32.90856                      88.74168
                      -9.56623                     -33.97669                      86.66596
                     -10.08848                     -35.04351                      84.58860
                     -10.60907                     -36.10904                      82.50900
                     -11.12461                     -37.17362                      80.42661
                     -11.63298                     -38.23741                      78.34109
                     -12.13206                     -39.30043                      76.25209
                     -12.62714                     -40.36329                      74.16081
                     -13.12028                     -41.42626                      72.06767
                     -13.61006                     -42.48971                      69.97258
                     -14.09606                     -43.55392                      67.87559
                     -14.57688                     -44.61912                      65.77663
                     -15.05172                     -45.68458                      63.67528
                     -15.52107                     -46.75002                      61.57158
                     -15.98505                     -47.81527                      59.46559
                     -16.44652                     -48.88101                      57.35820
                     -16.90549                     -49.94747                      55.24970
                     -17.36231                     -51.01479                      53.14047
                     -17.81726                     -52.08272                      51.03074
                     -18.27153                     -53.15088                      48.92085
                     -18.72427                     -54.21944                      46.81129
                     -19.15928                     -55.41575                      44.76268
        </DataArray>
      </Points>
      <PointData>
        <DataArray type="Float32" Name="TranslationalVelocity" NumberOfComponents="3" format="ascii">
                      -0.63517                       1.87692                      -0.82966
                      -0.74548                       2.96668                      -1.41965
                      -0.85240                       4.06451                      -1.99320
                      -0.95263                       5.17801                      -2.53441
                      -1.04830                       6.30191                      -3.05353
                      -1.14146                       7.43117                      -3.56033
                      -1.23439                       8.56027                      -4.06563
                      -1.33029                       9.68139                      -4.58464
                      -1.43054                      10.79114                      -5.12386
                      -1.53016                      11.90150                      -5.65896
                      -1.62989                      13.01073                      -6.19327
                      -1.73117                      14.11553                      -6.73352
                      -1.83578                      15.21181                      -7.28810
                      -1.94242                      16.30291                      -7.85055
                      -2.04881                      17.39445                      -8.40971
                      -2.15494                      18.48659                      -8.96543
                      -2.26102                      19.57892                      -9.51854
                      -2.36707                      20.67148                     -10.06907
                      -2.47330                      21.76379                     -10.61798
                      -2.57983                      22.85548                     -11.16590
                      -2.68671                      23.94646                     -11.71309
                      -2.79392                      25.03683                     -12.25943
                      -2.90133                      26.12695                     -12.80443
                      -3.00884                      27.21716                     -13.34766
                      -3.11644                      28.30745                     -13.88926
                      -3.22407                      29.39796                     -14.42907
                      -3.33169                      30.48871                     -14.96706
                      -3.43930                      31.57961                     -15.50341
                      -3.54700                      32.67035                     -16.03882
                      -3.65471                      33.76113                     -16.57309
                      -3.76238                      34.85196                     -17.10622
                      -3.86995                      35.94284                     -17.63824
                      -3.97743                      37.03365                     -18.16932
                      -4.08476                      38.12430                     -18.69953
                      -4.19191                      39.21472                     -19.22887
                      -4.29887                      40.30481                     -19.75767
                      -4.40563                      41.39452                     -20.28604
                      -4.51218                      42.48373                     -20.81418
                      -4.61850                      43.57235                     -21.34222
                      -4.72457                      44.66026                     -21.87029
                      -4.83028                      45.74757                     -22.39802
                      -4.93557                      46.83435                     -22.92531
                      -5.04039                      47.92060                     -23.45209
                      -5.14479                      49.00624                     -23.97874
                      -5.24878                      50.09120                     -24.50541
                      -5.35235                      51.17546                     -25.03224
                      -5.45550                      52.25909                     -25.55916
                      -5.55821                      53.34222                     -26.08607
                      -5.66051                      54.42479                     -26.61316
                      -5.77527                      55.47559                     -27.20318
        </DataArray>
        <DataArray type="Float32" Name="RotationalVelocity" NumberOfComponents="3" format="ascii">
                       0.51092                      -0.00439                      -0.10364
                       0.51084                      -0.00439                      -0.10362
                       0.51069                      -0.00438                      -0.10358
                       0.51046                      -0.00437                      -0.10352
                       0.51016                      -0.00435                      -0.10345
                       0.50979                      -0.00432                      -0.10336
                       0.50938                      -0.00427                      -0.10327
                       0.50894                      -0.00420                      -0.10318
                       0.50848                      -0.00412                      -0.10309
                       0.50799                      -0.00401                      -0.10301
                       0.50750                      -0.00389                      -0.10293
                       0.50701                      -0.00375                      -0.10287
                       0.50652                      -0.00359                      -0.10281
                       0.50604                      -0.00343                      -0.10276
                       0.50556                      -0.00325                      -0.10272
                       0.50510                      -0.00306                      -0.10269
                       0.50465                      -0.00287                      -0.10266
                       0.50422                      -0.00267                      -0.10264
                       0.50380                      -0.00247                      -0.10263
                       0.50340                      -0.00227                      -0.10262
                       0.50300                      -0.00208                      -0.10261
                       0.50262                      -0.00189                      -0.10260
                       0.50224                      -0.00170                      -0.10259
                       0.50187                      -0.00153                      -0.10258
                       0.50150                      -0.00137                      -0.10256
                       0.50113                      -0.00122                      -0.10254
                       0.50077                      -0.00108                      -0.10250
                       0.50039                      -0.00096                      -0.10246
                       0.50001                      -0.00085                      -0.10241
                       0.49963                      -0.00076                      -0.10235
                       0.49923                      -0.00069                      -0.10227
                       0.49882                      -0.00064                      -0.10218
                       0.49839                      -0.00060                      -0.10208
                       0.49795                      -0.00059                      -0.10196
                       0.49750                      -0.00059                      -0.10183
                       0.49704                      -0.00061                      -0.10169
                       0.49657                      -0.00064                      -0.10154
                       0.49609                      -0.00070                      -0.10137
                       0.49560                      -0.00077                      -0.10120
                       0.49512                      -0.00085                      -0.10101
                       0.49464                      -0.00094                      -0.10083
                       0.49417                      -0.00105                      -0.10064
                       0.49373                      -0.00118                      -0.10044
                       0.49331                      -0.00131                      -0.10026
                       0.49295                      -0.00145                      -0.10008
                       0.49263                      -0.00160                      -0.09991
                       0.49239                      -0.00175                      -0.09976
                       0.49223                      -0.00190                      -0.09964
                       0.49218                      -0.00205                      -0.09954
                       0.49222                      -0.00219                      -0.09948
        </DataArray>
        <DataArray type="Float32" Name="TranslationalAcceleration" NumberOfComponents="3" format="ascii">
                      -0.15141                       0.39215                       1.00095
                      -0.02770                       0.65051                       1.58601
                       0.09549                       0.90056                       2.17397
                       0.21834                       1.13456                       2.76745
                       0.34022                       1.35921                       3.36395
                       0.46057                       1.58077                       3.96114
                       0.57887                       1.80584                       4.55643
                       0.69440                       2.04317                       5.14608
                       0.80680                       2.29647                       5.72815
                       0.91707                       2.55267                       6.30787
                       1.02515                       2.81370                       6.88435
                       1.13082                       3.08320                       7.45591
                       1.23379                       3.36553                       8.02040
                       1.33447                       3.65707                       8.57925
                       1.43359                       3.95183                       9.13528
                       1.53140                       4.24962                       9.68861
                       1.62814                       4.55081                      10.23906
                       1.72410                       4.85528                      10.78672
                       1.81954                       5.16345                      11.33134
                       1.91480                       5.47555                      11.87276
                       2.01024                       5.79165                      12.41093
                       2.10627                       6.11163                      12.94584
                       2.20338                       6.43518                      13.47762
                       2.30205                       6.76205                      14.00630
                       2.40278                       7.09231                      14.53174
                       2.50608                       7.42588                      15.05389
                       2.61247                       7.76281                      15.57259
                       2.72253                       8.10335                      16.08752
                       2.83679                       8.44795                      16.59820
                       2.95584                       8.79664                      17.10441
                       3.08029                       9.14957                      17.60583
                       3.21073                       9.50692                      18.10214
                       3.34777                       9.86896                      18.59298
                       3.49201                      10.23594                      19.07803
                       3.64404                      10.60806                      19.55699
                       3.80441                      10.98564                      20.02941
                       3.97365                      11.36886                      20.49492
                       4.15229                      11.75792                      20.95323
                       4.34079                      12.15296                      21.40409
                       4.53958                      12.55405                      21.84736
                       4.74905                      12.96101                      22.28319
                       4.96948                      13.37369                      22.71170
                       5.20104                      13.79189                      23.13311
                       5.44374                      14.21548                      23.54749
                       5.69751                      14.64411                      23.95528
                       5.96211                      15.07730                      24.35704
                       6.23719                      15.51432                      24.75367
                       6.52225                      15.95422                      25.14624
                       6.81658                      16.39600                      25.53608
                       7.11354                      16.86543                      25.89914
        </DataArray>
        <DataArray type="Float32" Name="OrientationX" NumberOfComponents="3" format="ascii">
                       0.88721                       0.26661                      -0.37653
                       0.88704                       0.26607                      -0.37732
                       0.88744                       0.26180                      -0.37937
                       0.88968                       0.25311                      -0.38001
                       0.89402                       0.24224                      -0.37689
                       0.89993                       0.22992                      -0.37049
                       0.90687                       0.21686                      -0.36134
                       0.91409                       0.20344                      -0.35078
                       0.92033                       0.18871                      -0.34262
                       0.92527                       0.17341                      -0.33735
                       0.92955                       0.16014                      -0.33211
                       0.93351                       0.14996                      -0.32569
                       0.93727                       0.14153                      -0.31859
                       0.94072                       0.13277                      -0.31213
                       0.94383                       0.12409                      -0.30623
                       0.94676                       0.11596                      -0.30032
                       0.94950                       0.10853                      -0.29439
                       0.95192                       0.10179                      -0.28896
                       0.95380                       0.09524                      -0.28496
                       0.95513                       0.08876                      -0.28259
                       0.95603                       0.08226                      -0.28149
                       0.95680                       0.07612                      -0.28060
                       0.95774                       0.07089                      -0.27876
                       0.95884                       0.06651                      -0.27605
                       0.96010                       0.06290                      -0.27248
                       0.96144                       0.05979                      -0.26844
                       0.96234                       0.05611                      -0.26599
                       0.96272                       0.05179                      -0.26548
                       0.96294                       0.04753                      -0.26548
                       0.96328                       0.04384                      -0.26491
                       0.96387                       0.04088                      -0.26321
                       0.96473                       0.03852                      -0.26040
                       0.96583                       0.03662                      -0.25658
                       0.96713                       0.03493                      -0.25188
                       0.96830                       0.03258                      -0.24764
                       0.96922                       0.02891                      -0.24449
                       0.97018                       0.02445                      -0.24115
                       0.97119                       0.02012                      -0.23746
                       0.97220                       0.01623                      -0.23360
                       0.97319                       0.01320                      -0.22963
                       0.97406                       0.01113                      -0.22603
                       0.97465                       0.01094                      -0.22347
                       0.97498                       0.01148                      -0.22198
                       0.97512                       0.01224                      -0.22132
                       0.97519                       0.01346                      -0.22098
                       0.97515                       0.01510                      -0.22101
                       0.97499                       0.01719                      -0.22158
                       0.97470                       0.02004                      -0.22261
                       0.97417                       0.02322                      -0.22464
                       0.97366                       0.02752                      -0.22636
        </DataArray>
        <DataArray type="Float32" Name="OrientationY" NumberOfComponents="3" format="ascii">
                       0.40065                      -0.84991                       0.34225
                       0.40047                      -0.85008                       0.34204
                       0.39747                      -0.85140                       0.34225
                       0.38999                      -0.85408                       0.34418
                       0.37909                      -0.85736                       0.34818
                       0.36559                      -0.86094                       0.35373
                       0.35030                      -0.86458                       0.36028
                       0.33409                      -0.86811                       0.36710
                       0.31766                      -0.87168                       0.37318
                       0.30193                      -0.87506                       0.37831
                       0.28800                      -0.87779                       0.38280
                       0.27627                      -0.87983                       0.38675
                       0.26578                      -0.88148                       0.39033
                       0.25527                      -0.88308                       0.39372
                       0.24506                      -0.88456                       0.39686
                       0.23532                      -0.88587                       0.39981
                       0.22619                      -0.88702                       0.40252
                       0.21787                      -0.88802                       0.40491
                       0.21034                      -0.88891                       0.40694
                       0.20358                      -0.88971                       0.40862
                       0.19736                      -0.89043                       0.41010
                       0.19156                      -0.89107                       0.41147
                       0.18615                      -0.89160                       0.41279
                       0.18109                      -0.89205                       0.41406
                       0.17632                      -0.89244                       0.41528
                       0.17179                      -0.89279                       0.41643
                       0.16746                      -0.89313                       0.41747
                       0.16344                      -0.89344                       0.41839
                       0.15970                      -0.89372                       0.41924
                       0.15621                      -0.89396                       0.42005
                       0.15284                      -0.89416                       0.42085
                       0.14952                      -0.89435                       0.42164
                       0.14614                      -0.89453                       0.42243
                       0.14256                      -0.89472                       0.42327
                       0.13860                      -0.89490                       0.42420
                       0.13398                      -0.89509                       0.42529
                       0.12859                      -0.89527                       0.42657
                       0.12316                      -0.89542                       0.42785
                       0.11804                      -0.89554                       0.42904
                       0.11361                      -0.89563                       0.43004
                       0.11019                      -0.89570                       0.43079
                       0.10888                      -0.89573                       0.43105
                       0.10870                      -0.89574                       0.43108
                       0.10907                      -0.89573                       0.43100
                       0.10998                      -0.89572                       0.43081
                       0.11144                      -0.89569                       0.43050
                       0.11353                      -0.89564                       0.43005
                       0.11649                      -0.89556                       0.42942
                       0.12019                      -0.89545                       0.42863
                       0.12472                      -0.89531                       0.42763
        </DataArray>
        <DataArray type="Float32" Name="OrientationZ" NumberOfComponents="3" format="ascii">
                      -0.22877                      -0.45450                      -0.86087
                      -0.22974                      -0.45451                      -0.86060
                      -0.23339                      -0.45451                      -0.85962
                      -0.23744                      -0.45441                      -0.85857
                      -0.23879                      -0.45416                      -0.85833
                      -0.23764                      -0.45378                      -0.85884
                      -0.23427                      -0.45330                      -0.86002
                      -0.22984                      -0.45276                      -0.86150
                      -0.22823                      -0.45228                      -0.86218
                      -0.22960                      -0.45189                      -0.86202
                      -0.23022                      -0.45148                      -0.86207
                      -0.22856                      -0.45101                      -0.86276
                      -0.22559                      -0.45052                      -0.86380
                      -0.22336                      -0.45005                      -0.86462
                      -0.22163                      -0.44962                      -0.86529
                      -0.21968                      -0.44920                      -0.86600
                      -0.21745                      -0.44879                      -0.86678