<?xml version="1.0"?>
<VTKFile type="PolyData" version="0.1" byte_order="LittleEndian">
  <PolyData>
    <Piece NumberOfPoints="     50" NumberOfVerts="  0" NumberOfLines="     49"
           NumberOfStrips="  0" NumberOfPolys="      0">
      <Points>
        <DataArray type="Float32" NumberOfComponents="3" format="ascii">
                      18.17049                      -2.92746                     152.95555
                      18.39225                      -4.37247                     154.84525
                      18.60536                      -5.84533                     156.71316
                      18.79765                      -7.37309                     158.53842
                      18.97909                      -8.93831                     160.33415
                      19.15907                     -10.52437                     162.11283
                      19.34658                     -12.11280                     163.88850
                      19.55091                     -13.67756                     165.68140
                      19.77421                     -15.20746                     167.50045
                      19.99654                     -16.74391                     169.31391
                      20.21851                     -18.28128                     171.12642
                      20.44623                     -19.80804                     172.94680
                      20.68920                     -21.30979                     174.78582
                      20.94528                     -22.79753                     176.63465
                      21.20893                     -24.29033                     178.47820
                      21.48084                     -25.78846                     180.31610
                      21.76198                     -27.29043                     182.14939
                      22.05343                     -28.79619                     183.97790
                      22.35390                     -30.30408                     185.80317
                      22.65958                     -31.81319                     187.62661
                      22.96788                     -33.32327                     189.44901
                      23.27631                     -34.83472                     191.27066
                      23.58761                     -36.34846                     193.09049
                      23.90543                     -37.86512                     194.90738
                      24.23219                     -39.38447                     196.72112
                      24.57132                     -40.90659                     198.53096
                      24.92286                     -42.43158                     200.33679
                      25.27957                     -43.95974                     202.14017
                      25.64003                     -45.49016                     203.94252
                      26.00449                     -47.02341                     205.74359
                      26.37711                     -48.55929                     207.54275
                      26.76096                     -50.09761                     209.33950
                      27.15979                     -51.63779                     211.13336
                      27.57604                     -53.17943                     212.92394
                      28.01211                     -54.72217                     214.71069
                      28.46307                     -56.26607                     216.49508
                      28.92716                     -57.81113                     218.27771
                      29.40603                     -59.35681                     220.05849
                      29.90026                     -60.90274                     221.83747
                      30.41130                     -62.44836                     223.61442
                      30.93997                     -63.99398                     225.38849
                      31.48570                     -65.53966                     227.15945
                      32.04819                     -67.08535                     228.92705
                      32.62433                     -68.63072                     230.69240
                      33.21366                     -70.17529                     232.45552
                      33.81522                     -71.71870                     234.21647
                      34.42795                     -73.26079                     235.97501
                      35.04972                     -74.80166                     237.73101
                      35.68011                     -76.34042                     239.48423
                      36.33006                     -77.76893                     241.32609
        </DataArray>
      </Points>
      <PointData>
        <DataArray type="Float32" Name="TranslationalVelocity" NumberOfComponents="3" format="ascii">
                      -0.07357                      -2.08511                      -1.70922
                      -0.24679                      -3.43921                      -2.72433
                      -0.42368                      -4.77704                      -3.75902
                      -0.60779                      -6.08251                      -4.83231
                      -0.79686                      -7.36617                      -5.93209
                      -0.98872                      -8.63801                      -7.04681
                      -1.18096                      -9.90909                      -8.16362
                      -1.37016                     -11.19483                      -9.26429
                      -1.55483                     -12.50183                     -10.34098
                      -1.74037                     -13.80528                     -11.42272
                      -1.92603                     -15.10851                     -12.50554
                      -2.11028                     -16.41853                     -13.58137
                      -2.29120                     -17.74412                     -14.64012
                      -2.47024                     -19.07880                     -15.68950
                      -2.64986                     -20.41125                     -16.74289
                      -2.83010                     -21.74125                     -17.80048
                      -3.01075                     -23.06966                     -18.86123
                      -3.19179                     -24.39647                     -19.92510
                      -3.37302                     -25.72258                     -20.99089
                      -3.55430                     -27.04849                     -22.05795
                      -3.73561                     -28.37442                     -23.12606
                      -3.91699                     -29.70025                     -24.19548
                      -4.09857                     -31.02555                     -25.26688
                      -4.28047                     -32.35000                     -26.34071
                      -4.46266                     -33.67376                     -27.41682
                      -4.64518                     -34.99671                     -28.49530
                      -4.82807                     -36.31879                     -29.57621
                      -5.01136                     -37.64021                     -30.65973
                      -5.19498                     -38.96177                     -31.74522
                      -5.37900                     -40.28337                     -32.83309
                      -5.56345                     -41.60509                     -33.92324
                      -5.74833                     -42.92698                     -35.01558
                      -5.93360                     -44.24922                     -36.10971
                      -6.11925                     -45.57184                     -37.20539
                      -6.30525                     -46.89479                     -38.30239
                      -6.49164                     -48.21850                     -39.40074
                      -6.67844                     -49.54319                     -40.50045
                      -6.86561                     -50.86904                     -41.60115
                      -7.05313                     -52.19617                     -42.70258
                      -7.24095                     -53.52461                     -43.80436
                      -7.42913                     -54.85386                     -44.90670
                      -7.61770                     -56.18370                     -46.00965
                      -7.80666                     -57.51389                     -47.11314
                      -7.99597                     -58.84478                     -48.21687
                      -8.18558                     -60.17630                     -49.32048
                      -8.37543                     -61.50832                     -50.42363
                      -8.56549                     -62.84044                     -51.52614
                      -8.75576                     -64.17221                     -52.62796
                      -8.94608                     -65.50328                     -53.72835
                      -9.12212                     -66.90006                     -54.75019
        </DataArray>
        <DataArray type="Float32" Name="RotationalVelocity" NumberOfComponents="3" format="ascii">
                       0.70168                       0.00525                      -0.12675
                       0.70172                       0.00525                      -0.12676
                       0.70181                       0.00525                      -0.12677
                       0.70195                       0.00524                      -0.12679
                       0.70212                       0.00523                      -0.12681
                       0.70233                       0.00522                      -0.12684
                       0.70257                       0.00522                      -0.12687
                       0.70283                       0.00521                      -0.12689
                       0.70310                       0.00522                      -0.12692
                       0.70338                       0.00523                      -0.12693
                       0.70366                       0.00525                      -0.12694
                       0.70394                       0.00528                      -0.12695
                       0.70423                       0.00531                      -0.12695
                       0.70450                       0.00534                      -0.12695
                       0.70477                       0.00538                      -0.12694
                       0.70504                       0.00543                      -0.12693
                       0.70529                       0.00547                      -0.12692
                       0.70554                       0.00552                      -0.12690
                       0.70578                       0.00557                      -0.12689
                       0.70601                       0.00562                      -0.12687
                       0.70624                       0.00566                      -0.12686
                       0.70645                       0.00570                      -0.12684
                       0.70667                       0.00574                      -0.12683
                       0.70688                       0.00577                      -0.12683
                       0.70709                       0.00580                      -0.12682
                       0.70730                       0.00582                      -0.12683
                       0.70751                       0.00584                      -0.12683
                       0.70773                       0.00584                      -0.12685
                       0.70795                       0.00584                      -0.12687
                       0.70818                       0.00583                      -0.12690
                       0.70841                       0.00581                      -0.12694
                       0.70865                       0.00579                      -0.12698
                       0.70890                       0.00575                      -0.12704
                       0.70916                       0.00570                      -0.12710
                       0.70943                       0.00565                      -0.12717
                       0.70971                       0.00559                      -0.12724
                       0.70999                       0.00552                      -0.12733
                       0.71028                       0.00544                      -0.12742
                       0.71057                       0.00536                      -0.12751
                       0.71087                       0.00527                      -0.12762
                       0.71116                       0.00517                      -0.12772
                       0.71144                       0.00507                      -0.12783
                       0.71171                       0.00497                      -0.12794
                       0.71197                       0.00486                      -0.12805
                       0.71219                       0.00476                      -0.12815
                       0.71238                       0.00465                      -0.12826
                       0.71253                       0.00455                      -0.12836
                       0.71263                       0.00445                      -0.12845
                       0.71266                       0.00436                      -0.12852
                       0.71264                       0.00427                      -0.12859
        </DataArray>
        <DataArray type="Float32" Name="TranslationalAcceleration" NumberOfComponents="3" format="ascii">
                      -0.27494                       1.26624                      -1.52258
                      -0.45046                       2.00027                      -2.47217
                      -0.62403                       2.74864                      -3.41036
                      -0.79370                       3.52526                      -4.32585
                      -0.96077                       4.32147                      -5.22603
                      -1.12647                       5.12897                      -6.11793
                      -1.29215                       5.93852                      -7.00930
                      -1.45972                       6.73693                      -7.91105
                      -1.62999                       7.51854                      -8.82782
                      -1.79999                       8.30443                      -9.74215
                      -1.97014                       9.09173                     -10.65638
                      -2.14131                       9.87460                     -11.57547
                      -2.31458                      10.64567                     -12.50564
                      -2.48920                      11.41055                     -13.44232
                      -2.66378                      12.17893                     -14.37749
                      -2.83833                      12.95094                     -15.31100
                      -3.01295                      13.72580                     -16.24344
                      -3.18766                      14.50345                     -17.17479
                      -3.36256                      15.28302                     -18.10568
                      -3.53773                      16.06400                     -19.03647
                      -3.71319                      16.84623                     -19.96730
                      -3.88893                      17.62990                     -20.89809
                      -4.06491                      18.41548                     -21.82853
                      -4.24109                      19.20329                     -22.75838
                      -4.41748                      19.99322                     -23.68774
                      -4.59408                      20.78534                     -24.61653
                      -4.77086                      21.57969                     -25.54471
                      -4.94787                      22.37644                     -26.47241
                      -5.12520                      23.17513                     -27.40023
                      -5.30283                      23.97608                     -28.32808
                      -5.48077                      24.77925                     -29.25602
                      -5.65903                      25.58458                     -30.18409
                      -5.83762                      26.39180                     -31.11241
                      -6.01654                      27.20077                     -32.04101
                      -6.19578                      28.01134                     -32.96985
                      -6.37538                      28.82355                     -33.89925
                      -6.55537                      29.63746                     -34.82939
                      -6.73578                      30.45279                     -35.76038
                      -6.91659                      31.26939                     -36.69232
                      -7.09782                      32.08697                     -37.62524
                      -7.27939                      32.90568                     -38.55880
                      -7.46126                      33.72555                     -39.49282
                      -7.64338                      34.54649                     -40.42715
                      -7.82579                      35.36826                     -41.36204
                      -8.00845                      36.19053                     -42.29744
                      -8.19133                      37.01298                     -43.23326
                      -8.37435                      37.83536                     -44.16920
                      -8.55743                      38.65753                     -45.10494
                      -8.74048                      39.47878                     -46.04021
                      -8.93179                      40.24277                     -47.02311
        </DataArray>
        <DataArray type="Float32" Name="OrientationX" NumberOfComponents="3" format="ascii">
                       0.92275                      -0.23952                      -0.30194
                       0.92288                      -0.24008                      -0.30107
                       0.92434                      -0.23999                      -0.29666
                       0.92761                      -0.23627                      -0.28934
                       0.93199                      -0.22774                      -0.28202
                       0.93703                      -0.21522                      -0.27506
                       0.94229                      -0.19963                      -0.26877
                       0.94742                      -0.18250                      -0.26284
                       0.95247                      -0.16709                      -0.25474
                       0.95721                      -0.15423                      -0.24488
                       0.96108                      -0.14232                      -0.23679
                       0.96393                      -0.13062                      -0.23192
                       0.96615                      -0.11901                      -0.22891
                       0.96829                      -0.10785                      -0.22536
                       0.97026                      -0.09725                      -0.22168
                       0.97196                      -0.08683                      -0.21852
                       0.97337                      -0.07669                      -0.21602
                       0.97452                      -0.06727                      -0.21396
                       0.97557                      -0.05926                      -0.21153
                       0.97659                      -0.05280                      -0.20852
                       0.97760                      -0.04748                      -0.20503
                       0.97849                      -0.04247                      -0.20186
                       0.97911                      -0.03686                      -0.19996
                       0.97947                      -0.03072                      -0.19925
                       0.97957                      -0.02401                      -0.19967
                       0.97948                      -0.01700                      -0.20080
                       0.97955                      -0.01118                      -0.20088
                       0.97984                      -0.00687                      -0.19967
                       0.98012                      -0.00299                      -0.19840
                       0.98021                       0.00127                      -0.19796
                       0.98004                       0.00638                      -0.19871
                       0.97961                       0.01237                      -0.20054
                       0.97893                       0.01919                      -0.20327
                       0.97806                       0.02681                      -0.20660
                       0.97727                       0.03432                      -0.20920
                       0.97678                       0.04138                      -0.21023
                       0.97633                       0.04897                      -0.21066
                       0.97576                       0.05684                      -0.21135
                       0.97501                       0.06470                      -0.21251
                       0.97405                       0.07230                      -0.21446
                       0.97294                       0.07913                      -0.21709
                       0.97165                       0.08417                      -0.22094
                       0.97040                       0.08785                      -0.22497
                       0.96926                       0.09059                      -0.22876
                       0.96812                       0.09272                      -0.23269
                       0.96700                       0.09419                      -0.23671
                       0.96596                       0.09480                      -0.24071
                       0.96491                       0.09449                      -0.24498
                       0.96407                       0.09286                      -0.24889
                       0.96301                       0.09086                      -0.25367
        </DataArray>
        <DataArray type="Float32" Name="OrientationY" NumberOfComponents="3" format="ascii">
                       0.37487                       0.73975                       0.55878
                       0.37478                       0.73959                       0.55906
                       0.37203                       0.73961                       0.56087
                       0.36467                       0.74068                       0.56428
                       0.35352                       0.74304                       0.56826
                       0.33948                       0.74628                       0.57255
                       0.32346                       0.75000                       0.57695
                       0.30647                       0.75371                       0.58138
                       0.28952                       0.75669                       0.58617
                       0.27347                       0.75891                       0.59099
                       0.25926                       0.76071                       0.59506
                       0.24722                       0.76224                       0.59822
                       0.23642                       0.76357                       0.60089
                       0.22565                       0.76469                       0.60360
                       0.21524                       0.76561                       0.60622
                       0.20531                       0.76639                       0.60868
                       0.19602                       0.76703                       0.61094
                       0.18756                       0.76750                       0.61300
                       0.17996                       0.76779                       0.61491
                       0.17319                       0.76792                       0.61669
                       0.16699                       0.76795                       0.61835
                       0.16121                       0.76795                       0.61989
                       0.15579                       0.76796                       0.62126
                       0.15072                       0.76797                       0.62250
                       0.14594                       0.76797                       0.62364
                       0.14140                       0.76794                       0.62472
                       0.13709                       0.76786                       0.62578
                       0.13310                       0.76773                       0.62680
                       0.12941                       0.76758                       0.62775
                       0.12596                       0.76744                       0.62862
                       0.12263                       0.76730                       0.62945
                       0.11934                       0.76715                       0.63026
                       0.11601                       0.76699                       0.63109
                       0.11247                       0.76679                       0.63197
                       0.10857                       0.76656                       0.63293
                       0.10400                       0.76628                       0.63403
                       0.09866                       0.76594                       0.63529
                       0.09328                       0.76557                       0.63656
                       0.08822                       0.76517                       0.63775
                       0.08388                       0.76479                       0.63880
                       0.08054                       0.76445                       0.63963
                       0.07932                       0.76428                       0.63999
                       0.07920                       0.76422                       0.64007
                       0.07962                       0.76424                       0.64000
                       0.08058                       0.76431                       0.63979
                       0.08206                       0.76445                       0.63944
                       0.08416                       0.76466                       0.63891
                       0.08711                       0.76497                       0.63815
                       0.09077                       0.76538                       0.63715
                       0.09526                       0.76585                       0.63592
        </DataArray>
        <DataArray type="Float32" Name="OrientationZ" NumberOfComponents="3" format="ascii">
                       0.08952                      -0.62880                       0.77239
                       0.08845                      -0.62878                       0.77254
                       0.08481                      -0.62879                       0.77293
                       0.08098                      -0.62894                       0.77322
                       0.08014                      -0.62931                       0.77301
                       0.08205                      -0.62988                       0.77235
                       0.08640                      -0.63059                       0.77129
                       0.09200                      -0.63136                       0.77001
                       0.09482                      -0.63206                       0.76910
                       0.09469                      -0.63267                       0.76861
                       0.09544                      -0.63329                       0.76800
                       0.09864                      -0.63397                       0.76704
                       0.10327                      -0.63466                       0.76586
                       0.10723                      -0.63531                       0.76478
                       0.11077                      -0.63591                       0.76377
                       0.11461                      -0.63648                       0.76273
                       0.11884                      -0.63702                       0.76163