<?xml version="1.0"?>
<VTKFile type="PolyData" version="0.1" byte_order="LittleEndian">
  <PolyData>
    <Piece NumberOfPoints="      3" NumberOfVerts="  0" NumberOfLines="      2"
           NumberOfStrips="  0" NumberOfPolys="      0">
      <Points>
        <DataArray type="Float32" NumberOfComponents="3" format="ascii">
                      31.50153                      -0.65734                     147.70169
                      31.50191                      -0.65738                     147.70668
                      31.50116                      -0.65730                     147.69670
        </DataArray>
      </Points>
      <PointData>
        <DataArray type="Float32" Name="TranslationalVelocity" NumberOfComponents="3" format="ascii">
                      -0.19846                       0.08747                      -0.04407
                      -0.19846                       0.08747                      -0.04407
                      -0.19846                       0.08747                      -0.04407
        </DataArray>
        <DataArray type="Float32" Name="RotationalVelocity" NumberOfComponents="3" format="ascii">
                      -0.00062                      -0.00017                      -0.00022
                      -0.00062                      -0.00017                      -0.00022
                      -0.00062                      -0.00017                      -0.00022
        </DataArray>
        <DataArray type="Float32" Name="TranslationalAcceleration" NumberOfComponents="3" format="ascii">
                       0.00452                       0.00822                       0.00350
                       0.00453                       0.00822                       0.00350
                       0.00452                       0.00822                       0.00350
        </DataArray>
        <DataArray type="Float32" Name="RotationalAcceleration" NumberOfComponents="3" format="ascii">
                      -0.00010                       0.00055                      -0.00005
                      -0.00010                       0.00055                      -0.00005
                      -0.00010                       0.00055                      -0.00005
        </DataArray>
        <DataArray type="Float32" Name="OrientationX" NumberOfComponents="3" format="ascii">
                       0.99716                       0.00432                      -0.07521
                       0.99716                       0.00432                      -0.07521
                       0.99716                       0.00432                      -0.07521
        </DataArray>
        <DataArray type="Float32" Name="OrientationY" NumberOfComponents="3" format="ascii">
                      -0.00375                       0.99996                       0.00779
                      -0.00375                       0.99996                       0.00779
                      -0.00375                       0.99996                       0.00779
        </DataArray>
        <DataArray type="Float32" Name="OrientationZ" NumberOfComponents="3" format="ascii">
                       0.07524                      -0.00749                       0.99714
                       0.07524                      -0.00749                       0.99714
                       0.07524                      -0.00749                       0.99714
        </DataArray>
      </PointData>
      <Lines>
        <DataArray type="Int32" Name="connectivity" format="ascii">
      0      1
      2      0
        </DataArray>
        <DataArray type="Int32" Name="offsets" format="ascii">
      2
      4
        </DataArray>
      </Lines>
    </Piece>
  </PolyData>
</VTKFile>
