<?xml version="1.0"?>
<VTKFile type="PolyData" version="0.1" byte_order="LittleEndian">
  <PolyData>
    <Piece NumberOfPoints="     50" NumberOfVerts="  0" NumberOfLines="     49"
           NumberOfStrips="  0" NumberOfPolys="      0">
      <Points>
        <DataArray type="Float32" NumberOfComponents="3" format="ascii">
                      14.77132                       2.42808                     153.03167
                      14.97399                       3.90860                     154.89585
                      15.17524                       5.36023                     156.78159
                      15.36998                       6.75462                     158.71040
                      15.56353                       8.11049                     160.66785
                      15.76085                       9.44565                     162.64024
                      15.96603                      10.77969                     164.61257
                      16.18143                      12.14000                     166.56418
                      16.40624                      13.53824                     168.48639
                      16.63130                      14.93066                     170.41268
                      16.85566                      16.32321                     172.33879
                      17.08234                      17.72813                     174.25531
                      17.31694                      19.16073                     176.15016
                      17.56017                      20.60951                     178.03179
                      17.81144                      22.05447                     179.91514
                      18.07149                      23.49526                     181.80035
                      18.34085                      24.93339                     183.68618
                      18.62058                      26.36884                     185.57247
                      18.90896                      27.80323                     187.45822
                      19.20189                      29.23748                     189.34341
                      19.49671                      30.67193                     191.22831
                      19.79100                      32.10634                     193.11370
                      20.08769                      33.53989                     194.99988
                      20.39065                      34.97195                     196.88676
                      20.70223                      36.40279                     198.77379
                      21.02592                      37.83221                     200.66049
                      21.36181                      39.26014                     202.54690
                      21.70266                      40.68681                     204.43455
                      22.04675                      42.11358                     206.32305
                      22.39447                      43.54015                     208.21285
                      22.74998                      44.96670                     210.10309
                      23.11634                      46.39335                     211.99310
                      23.49722                      47.82049                     213.88172
                      23.89503                      49.24828                     215.76817
                      24.31217                      50.67675                     217.65167
                      24.74363                      52.10650                     219.53316
                      25.18765                      53.53787                     221.41299
                      25.64580                      54.97120                     223.29038
                      26.11861                      56.40677                     225.16491
                      26.60748                      57.84474                     227.03582
                      27.11341                      59.28438                     228.90306
                      27.63592                      60.72534                     230.76677
                      28.17480                      62.16730                     232.62685
                      28.72686                      63.61080                     234.48367
                      29.29164                      65.05579                     236.33691
                      29.86821                      66.50213                     238.18642
                      30.45560                      67.94924                     240.03223
                      31.05186                      69.39640                     241.87480
                      31.65656                      70.84323                     243.71345
                      32.25131                      72.40321                     245.46552
        </DataArray>
      </Points>
      <PointData>
        <DataArray type="Float32" Name="TranslationalVelocity" NumberOfComponents="3" format="ascii">
                       0.33469                      -2.33251                       1.73385
                       0.53668                      -3.70489                       2.80183
                       0.73500                      -5.09277                       3.84906
                       0.92604                      -6.51115                       4.85517
                       1.11223                      -7.95041                       5.83370
                       1.29589                      -9.40142                       6.79751
                       1.47956                     -10.85395                       7.76079
                       1.66678                     -12.29340                       8.74335
                       1.85911                     -13.71343                       9.75366
                       2.05097                     -15.13705                      10.76015
                       2.24318                     -16.56107                      11.76712
                       2.43732                     -17.97906                      12.78343
                       2.63541                     -19.38301                      13.82015
                       2.83597                     -20.77910                      14.86896
                       3.03649                     -22.17806                      15.91535
                       3.23693                     -23.58008                      16.95904
                       3.43749                     -24.98432                      18.00110
                       3.63819                     -26.39079                      19.04150
                       3.83925                     -27.79852                      20.08140
                       4.04079                     -29.20692                      21.12146
                       4.24286                     -30.61585                      22.16196
                       4.44545                     -32.02551                      23.20272
                       4.64844                     -33.43652                      24.24310
                       4.85174                     -34.84932                      25.28264
                       5.05539                     -36.26382                      26.32150
                       5.25935                     -37.68013                      27.35953
                       5.46359                     -39.09831                      28.39664
                       5.66815                     -40.51851                      29.43309
                       5.87322                     -41.94023                      30.46986
                       6.07873                     -43.36388                      31.50677
                       6.28470                     -44.78941                      32.54393
                       6.49114                     -46.21674                      33.58141
                       6.69806                     -47.64557                      34.61948
                       6.90548                     -49.07568                      35.65826
                       7.11338                     -50.50684                      36.69776
                       7.32183                     -51.93909                      37.73848
                       7.53088                     -53.37248                      38.78070
                       7.74054                     -54.80668                      39.82468
                       7.95083                     -56.24145                      40.87061
                       8.16177                     -57.67644                      41.91862
                       8.37322                     -59.11176                      42.96815
                       8.58511                     -60.54744                      44.01896
                       8.79739                     -61.98335                      45.07080
                       9.01010                     -63.41930                      46.12407
                       9.22318                     -64.85495                      47.17871
                       9.43659                     -66.28999                      48.23457
                       9.65021                     -67.72422                      49.29116
                       9.86389                     -69.15760                      50.34792
                      10.07753                     -70.58943                      51.40443
                      10.30574                     -71.95640                      52.54404
        </DataArray>
        <DataArray type="Float32" Name="RotationalVelocity" NumberOfComponents="3" format="ascii">
                       0.72191                       0.00420                      -0.13115
                       0.72196                       0.00420                      -0.13116
                       0.72206                       0.00421                      -0.13117
                       0.72221                       0.00422                      -0.13120
                       0.72241                       0.00425                      -0.13123
                       0.72265                       0.00429                      -0.13128
                       0.72291                       0.00434                      -0.13134
                       0.72319                       0.00440                      -0.13142
                       0.72349                       0.00448                      -0.13150
                       0.72379                       0.00457                      -0.13159
                       0.72409                       0.00467                      -0.13170
                       0.72440                       0.00478                      -0.13181
                       0.72470                       0.00491                      -0.13193
                       0.72499                       0.00504                      -0.13205
                       0.72527                       0.00518                      -0.13218
                       0.72554                       0.00533                      -0.13231
                       0.72580                       0.00548                      -0.13245
                       0.72606                       0.00563                      -0.13259
                       0.72630                       0.00579                      -0.13273
                       0.72653                       0.00595                      -0.13287
                       0.72676                       0.00612                      -0.13301
                       0.72698                       0.00628                      -0.13315
                       0.72719                       0.00644                      -0.13329
                       0.72740                       0.00660                      -0.13343
                       0.72761                       0.00676                      -0.13357
                       0.72783                       0.00692                      -0.13370
                       0.72804                       0.00707                      -0.13383
                       0.72826                       0.00722                      -0.13396
                       0.72849                       0.00736                      -0.13409
                       0.72872                       0.00750                      -0.13422
                       0.72896                       0.00764                      -0.13434
                       0.72922                       0.00777                      -0.13446
                       0.72948                       0.00790                      -0.13458
                       0.72976                       0.00802                      -0.13469
                       0.73004                       0.00814                      -0.13481
                       0.73034                       0.00825                      -0.13492
                       0.73064                       0.00835                      -0.13502
                       0.73096                       0.00845                      -0.13512
                       0.73127                       0.00854                      -0.13522
                       0.73159                       0.00863                      -0.13531
                       0.73191                       0.00871                      -0.13540
                       0.73221                       0.00878                      -0.13548
                       0.73251                       0.00885                      -0.13556
                       0.73279                       0.00890                      -0.13562
                       0.73304                       0.00895                      -0.13568
                       0.73325                       0.00898                      -0.13572
                       0.73342                       0.00901                      -0.13576
                       0.73354                       0.00902                      -0.13577
                       0.73359                       0.00902                      -0.13578
                       0.73358                       0.00901                      -0.13577
        </DataArray>
        <DataArray type="Float32" Name="TranslationalAcceleration" NumberOfComponents="3" format="ascii">
                      -0.29064                      -1.28208                      -1.68679
                      -0.46693                      -2.07691                      -2.68043
                      -0.64535                      -2.85638                      -3.68525
                      -0.82797                      -3.60540                      -4.71207
                      -1.01350                      -4.33420                      -5.75404
                      -1.20070                      -5.05244                      -6.80465
                      -1.38819                      -5.77078                      -7.85657
                      -1.57396                      -6.50410                      -8.89933
                      -1.75712                      -7.25875                      -9.92833
                      -1.94085                      -8.01120                     -10.96016
                      -2.12468                      -8.76465                     -11.99251
                      -2.30774                      -9.52576                     -13.02076
                      -2.48889                     -10.30281                     -14.03908
                      -2.66897                     -11.08956                     -15.05192
                      -2.84947                     -11.87517                     -16.06705
                      -3.03041                     -12.65940                     -17.08459
                      -3.21169                     -13.44304                     -18.10395
                      -3.39330                     -14.22603                     -19.12511
                      -3.57512                     -15.00924                     -20.14737
                      -3.75708                     -15.79314                     -21.17031
                      -3.93916                     -16.57791                     -22.19381
                      -4.12140                     -17.36341                     -23.21802
                      -4.30391                     -18.14915                     -24.24339
                      -4.48677                     -18.93477                     -25.27022
                      -4.67000                     -19.72039                     -26.29847
                      -4.85362                     -20.50587                     -27.32820
                      -5.03767                     -21.29117                     -28.35947
                      -5.22221                     -22.07647                     -29.39238
                      -5.40718                     -22.86254                     -30.42658
                      -5.59268                     -23.64924                     -31.46237
                      -5.77873                     -24.43667                     -32.49972
                      -5.96535                     -25.22491                     -33.53858
                      -6.15254                     -26.01417                     -34.57872
                      -6.34029                     -26.80455                     -35.61998
                      -6.52861                     -27.59609                     -36.66222
                      -6.71752                     -28.38919                     -37.70545
                      -6.90707                     -29.18407                     -38.74971
                      -7.09723                     -29.98094                     -39.79475
                      -7.28799                     -30.77997                     -40.84041
                      -7.47933                     -31.58124                     -41.88640
                      -7.67127                     -32.38434                     -42.93281
                      -7.86383                     -33.18906                     -43.97963
                      -8.05701                     -33.99520                     -45.02676
                      -8.25077                     -34.80301                     -46.07405
                      -8.44506                     -35.61238                     -47.12121
                      -8.63982                     -36.42313                     -48.16797
                      -8.83501                     -37.23479                     -49.21417
                      -9.03057                     -38.04679                     -50.25973
                      -9.22637                     -38.85867                     -51.30406
                      -9.41292                     -39.73300                     -52.30032
        </DataArray>
        <DataArray type="Float32" Name="OrientationX" NumberOfComponents="3" format="ascii">
                       0.97954                      -0.19732                       0.03956
                       0.97966                      -0.19659                       0.04034
                       0.98051                      -0.19208                       0.04132
                       0.98222                      -0.18357                       0.03944
                       0.98426                      -0.17367                       0.03284
                       0.98637                      -0.16300                       0.02229
                       0.98832                      -0.15215                       0.00862
                       0.98995                      -0.14128                      -0.00659
                       0.99148                      -0.12877                      -0.01955
                       0.99290                      -0.11525                      -0.02955
                       0.99383                      -0.10378                      -0.03901
                       0.99421                      -0.09561                      -0.04900
                       0.99423                      -0.08933                      -0.05930
                       0.99418                      -0.08266                      -0.06902
                       0.99404                      -0.07603                      -0.07815
                       0.99373                      -0.06998                      -0.08720
                       0.99326                      -0.06469                      -0.09613
                       0.99272                      -0.06002                      -0.10445
                       0.99224                      -0.05536                      -0.11131
                       0.99190                      -0.05053                      -0.11655
                       0.99166                      -0.04551                      -0.12056
                       0.99139                      -0.04088                      -0.12436
                       0.99094                      -0.03738                      -0.12903
                       0.99030                      -0.03495                      -0.13451
                       0.98947                      -0.03350                      -0.14080
                       0.98851                      -0.03271                      -0.14755
                       0.98775                      -0.03116                      -0.15292
                       0.98725                      -0.02871                      -0.15654
                       0.98681                      -0.02631                      -0.15975
                       0.98623                      -0.02466                      -0.16353
                       0.98542                      -0.02401                      -0.16842
                       0.98438                      -0.02423                      -0.17441
                       0.98308                      -0.02518                      -0.18142
                       0.98155                      -0.02655                      -0.18933
                       0.98003                      -0.02727                      -0.19699
                       0.97864                      -0.02654                      -0.20386
                       0.97714                      -0.02512                      -0.21112
                       0.97549                      -0.02392                      -0.21872
                       0.97375                      -0.02322                      -0.22642
                       0.97194                      -0.02339                      -0.23406
                       0.97019                      -0.02443                      -0.24113
                       0.96869                      -0.02709                      -0.24678
                       0.96747                      -0.03024                      -0.25116
                       0.96647                      -0.03337                      -0.25462
                       0.96557                      -0.03678                      -0.25754
                       0.96480                      -0.04043                      -0.25985
                       0.96423                      -0.04426                      -0.26136
                       0.96383                      -0.04857                      -0.26204
                       0.96379                      -0.05281                      -0.26140
                       0.96370                      -0.05801                      -0.26060
        </DataArray>
        <DataArray type="Float32" Name="OrientationY" NumberOfComponents="3" format="ascii">
                       0.18113                       0.77880                      -0.60055
                       0.18104                       0.77894                      -0.60039
                       0.17809                       0.78011                      -0.59976
                       0.17026                       0.78224                      -0.59926
                       0.15844                       0.78457                      -0.59946
                       0.14360                       0.78690                      -0.60015
                       0.12672                       0.78907                      -0.60108
                       0.10889                       0.79110                      -0.60192
                       0.09116                       0.79328                      -0.60200
                       0.07443                       0.79543                      -0.60145
                       0.05965                       0.79707                      -0.60094
                       0.04715                       0.79811                      -0.60066
                       0.03596                       0.79884                      -0.60047
                       0.02482                       0.79957                      -0.60006
                       0.01408                       0.80024                      -0.59951
                       0.00384                       0.80080                      -0.59892
                      -0.00572                       0.80125                      -0.59830
                      -0.01442                       0.80161                      -0.59767
                      -0.02223                       0.80195                      -0.59698
                      -0.02919                       0.80226                      -0.59627
                      -0.03557                       0.80254                      -0.59554
                      -0.04152                       0.80276                      -0.59486
                      -0.04709                       0.80289                      -0.59427
                      -0.05231                       0.80296                      -0.59374
                      -0.05723                       0.80297                      -0.59326
                      -0.06192                       0.80296                      -0.59281
                      -0.06637                       0.80295                      -0.59234
                      -0.07050                       0.80294                      -0.59188
                      -0.07434                       0.80289                      -0.59147
                      -0.07794                       0.80281                      -0.59112
                      -0.08142                       0.80269                      -0.59081
                      -0.08487                       0.80255                      -0.59052
                      -0.08837                       0.80240                      -0.59021
                      -0.09208                       0.80224                      -0.58986
                      -0.09616                       0.80208                      -0.58942
                      -0.10092                       0.80192                      -0.58885
                      -0.10645                       0.80176                      -0.58809
                      -0.11203                       0.80157                      -0.58731
                      -0.11728                       0.80137                      -0.58656
                      -0.12183                       0.80115                      -0.58594
                      -0.12536                       0.80090                      -0.58552
                      -0.12679                       0.80061                      -0.58561
                      -0.12711                       0.80030                      -0.58598
                      -0.12689                       0.79997                      -0.58647
                      -0.12613                       0.79965                      -0.58708
                      -0.12481                       0.79934                      -0.58778
                      -0.12286                       0.79904                      -0.58859
                      -0.12003                       0.79875                      -0.58956
                      -0.11645                       0.79847                      -0.59066
                      -0.11201                       0.79820                      -0.59189
        </DataArray>
        <DataArray type="Float32" Name="OrientationZ" NumberOfComponents="3" format="ascii">
                       0.08769                       0.59543                       0.79861
                       0.08661                       0.59548                       0.79869
                       0.08297                       0.59543                       0.79911
                       0.07916                       0.59531                       0.79959
                       0.07834                       0.59522                       0.79973
                       0.08028                       0.59517                       0.79958
                       0.08465                       0.59516                       0.79914
                       0.09025                       0.59515                       0.79853
                       0.09303                       0.59509                       0.79826
                       0.09282                       0.59498                       0.79836
                       0.09346                       0.59491                       0.79834
                       0.09653                       0.59488                       0.79800
                       0.10101                       0.59487                       0.79745
                       0.10479                       0.59485                       0.79697
                       0.10812                       0.59484                       0.79654
                       0.11174                       0.59483                       0.79605
                       0.11573                       0.59482                       0.79548