<?xml version="1.0"?>
<VTKFile type="PolyData" version="0.1" byte_order="LittleEndian">
  <PolyData>
    <Piece NumberOfPoints="     50" NumberOfVerts="  0" NumberOfLines="     49"
           NumberOfStrips="  0" NumberOfPolys="      0">
      <Points>
        <DataArray type="Float32" NumberOfComponents="3" format="ascii">
                      19.35365                      -0.21724                     154.01426
                      19.62003                       0.26110                     156.33986
                      19.88302                       0.70398                     158.67191
                      20.13561                       1.07665                     161.01710
                      20.38445                       1.40184                     163.37077
                      20.63579                       1.70117                     165.72853
                      20.89510                       1.99854                     168.08563
                      21.16670                       2.32743                     170.43579
                      21.45062                       2.70213                     172.77652
                      21.73474                       3.06918                     175.11832
                      22.01857                       3.43581                     177.46006
                      22.30599                       3.81698                     179.79878
                      22.60374                       4.23145                     182.13046
                      22.91173                       4.66514                     184.45747
                      23.22803                       5.09355                     186.78423
                      23.55337                       5.51631                     189.11066
                      23.88842                       5.93527                     191.43633
                      24.23425                       6.35047                     193.76105
                      24.58927                       6.76392                     196.08465
                      24.94948                       7.17671                     198.40762
                      25.31222                       7.58921                     200.73038
                      25.67508                       8.00099                     203.05356
                      26.04096                       8.41102                     205.37701
                      26.41366                       8.81859                     207.70029
                      26.79558                       9.22401                     210.02298
                      27.19018                       9.62715                     212.34447
                      27.59754                      10.02789                     214.66479
                      28.01046                      10.42619                     216.98551
                      28.42731                      10.82351                     219.30695
                      28.84847                      11.21936                     221.62937
                      29.27809                      11.61402                     223.95200
                      29.71926                      12.00770                     226.27422
                      30.17566                      12.40100                     228.59509
                      30.64972                      12.79427                     230.91394
                      31.14382                      13.18770                     233.23001
                      31.65301                      13.58170                     235.54453
                      32.17554                      13.97649                     237.85799
                      32.71299                      14.37263                     240.16983
                      33.26590                      14.77049                     242.47976
                      33.83569                      15.17048                     244.78713
                      34.42327                      15.57191                     247.09157
                      35.02812                      15.97444                     249.39301
                      35.64999                      16.37786                     251.69124
                      36.28568                      16.78271                     253.98689
                      36.93471                      17.18917                     256.27965
                      37.59607                      17.59730                     258.56933
                      38.26873                      18.00671                     260.85573
                      38.95060                      18.41679                     263.13895
                      39.64119                      18.82764                     265.41821
                      40.33020                      19.37899                     267.67186
        </DataArray>
      </Points>
      <PointData>
        <DataArray type="Float32" Name="TranslationalVelocity" NumberOfComponents="3" format="ascii">
                       0.00052                      -2.73961                       0.38611
                       0.05916                      -4.33910                       0.70839
                       0.11371                      -5.94272                       1.00679
                       0.16020                      -7.55435                       1.25789
                       0.20130                      -9.17178                       1.47701
                       0.23958                     -10.79288                       1.67871
                       0.27786                     -12.41518                       1.87909
                       0.32007                     -14.03501                       2.10078
                       0.36794                     -15.65072                       2.35347
                       0.41532                     -17.26804                       2.60105
                       0.46313                     -18.88616                       2.84840
                       0.51314                     -20.50352                       3.10566
                       0.56757                     -22.11818                       3.38552
                       0.62484                     -23.73172                       3.67845
                       0.68214                     -25.34688                       3.96787
                       0.73946                     -26.96368                       4.25347
                       0.79706                     -28.58187                       4.53652
                       0.85496                     -30.20143                       4.81700
                       0.91342                     -31.82203                       5.09627
                       0.97260                     -33.44350                       5.37509
                       1.03257                     -35.06581                       5.65369
                       1.09329                     -36.68908                       5.93181
                       1.15468                     -38.31353                       6.20872
                       1.21665                     -39.93930                       6.48391
                       1.27927                     -41.56638                       6.75757
                       1.34253                     -43.19477                       7.02958
                       1.40641                     -44.82449                       7.29984
                       1.47097                     -46.45578                       7.56838
                       1.53638                     -48.08870                       7.83619
                       1.60261                     -49.72348                       8.10296
                       1.66969                     -51.36011                       8.36882
                       1.73768                     -52.99856                       8.63390
                       1.80664                     -54.63866                       8.89858
                       1.87661                     -56.28027                       9.16304
                       1.94763                     -57.92319                       9.42740
                       2.01975                     -59.56771                       9.69196
                       2.09302                     -61.21398                       9.95691
                       2.16751                     -62.86183                      10.22258
                       2.24324                     -64.51114                      10.48924
                       2.32027                     -66.16166                      10.75713
                       2.39848                     -67.81323                      11.02574
                       2.47782                     -69.46574                      11.29484
                       2.55822                     -71.11898                      11.56427
                       2.63971                     -72.77297                      11.83443
                       2.72225                     -74.42736                      12.10543
                       2.80579                     -76.08182                      12.37729
                       2.89019                     -77.73595                      12.64974
                       2.97527                     -79.38943                      12.92236
                       3.06093                     -81.04145                      13.19518
                       3.16343                     -82.67567                      13.56451
        </DataArray>
        <DataArray type="Float32" Name="RotationalVelocity" NumberOfComponents="3" format="ascii">
                       0.67448                       0.00138                      -0.11591
                       0.67454                       0.00138                      -0.11591
                       0.67465                       0.00139                      -0.11593
                       0.67483                       0.00142                      -0.11595
                       0.67506                       0.00148                      -0.11598
                       0.67534                       0.00156                      -0.11602
                       0.67565                       0.00166                      -0.11607
                       0.67599                       0.00179                      -0.11613
                       0.67634                       0.00194                      -0.11619
                       0.67670                       0.00212                      -0.11625
                       0.67706                       0.00232                      -0.11632
                       0.67742                       0.00254                      -0.11640
                       0.67778                       0.00278                      -0.11647
                       0.67813                       0.00303                      -0.11655
                       0.67847                       0.00330                      -0.11663
                       0.67880                       0.00359                      -0.11672
                       0.67911                       0.00389                      -0.11680
                       0.67942                       0.00420                      -0.11688
                       0.67971                       0.00452                      -0.11697
                       0.67999                       0.00485                      -0.11705
                       0.68027                       0.00519                      -0.11714
                       0.68053                       0.00554                      -0.11722
                       0.68079                       0.00589                      -0.11731
                       0.68105                       0.00625                      -0.11740
                       0.68130                       0.00662                      -0.11749
                       0.68155                       0.00700                      -0.11758
                       0.68181                       0.00738                      -0.11767
                       0.68207                       0.00776                      -0.11776
                       0.68233                       0.00816                      -0.11785
                       0.68261                       0.00855                      -0.11795
                       0.68289                       0.00895                      -0.11805
                       0.68318                       0.00935                      -0.11815
                       0.68349                       0.00976                      -0.11825
                       0.68380                       0.01017                      -0.11835
                       0.68413                       0.01058                      -0.11845
                       0.68446                       0.01099                      -0.11856
                       0.68481                       0.01140                      -0.11866
                       0.68515                       0.01180                      -0.11876
                       0.68551                       0.01221                      -0.11887
                       0.68586                       0.01261                      -0.11897
                       0.68620                       0.01299                      -0.11907
                       0.68654                       0.01337                      -0.11917
                       0.68686                       0.01374                      -0.11927
                       0.68716                       0.01408                      -0.11936
                       0.68743                       0.01440                      -0.11944
                       0.68766                       0.01470                      -0.11951
                       0.68784                       0.01496                      -0.11958
                       0.68796                       0.01519                      -0.11963
                       0.68801                       0.01538                      -0.11967
                       0.68798                       0.01553                      -0.11969
        </DataArray>
        <DataArray type="Float32" Name="TranslationalAcceleration" NumberOfComponents="3" format="ascii">
                      -0.26713                      -0.31482                      -1.81682
                      -0.45154                      -0.55944                      -2.89161
                      -0.63645                      -0.78760                      -3.96961
                      -0.82239                      -0.98312                      -5.05384
                      -1.00915                      -1.15663                      -6.14272
                      -1.19651                      -1.31819                      -7.23471
                      -1.38423                      -1.47897                      -8.32800
                      -1.57189                      -1.65469                      -9.41985
                      -1.75931                      -1.85210                     -10.50904
                      -1.94720                      -2.04618                     -11.59993
                      -2.13547                      -2.24037                     -12.69192
                      -2.32394                      -2.44167                     -13.78382
                      -2.51236                      -2.65895                     -14.87413
                      -2.70092                      -2.88559                     -15.96405
                      -2.88997                      -3.11005                     -17.05562
                      -3.07954                      -3.33213                     -18.14885
                      -3.26959                      -3.55268                     -19.24354
                      -3.46013                      -3.77168                     -20.33964
                      -3.65112                      -3.99009                     -21.43691
                      -3.84256                      -4.20841                     -22.53520
                      -4.03446                      -4.42683                     -23.63448
                      -4.22683                      -4.64514                     -24.73482
                      -4.41973                      -4.86284                     -25.83637
                      -4.61319                      -5.07954                     -26.93922
                      -4.80722                      -5.29537                     -28.04336
                      -5.00184                      -5.51021                     -29.14877
                      -5.19708                      -5.72400                     -30.25547
                      -5.39300                      -5.93678                     -31.36366
                      -5.58962                      -6.14924                     -32.47335
                      -5.78699                      -6.36115                     -33.58475
                      -5.98515                      -6.57262                     -34.69783
                      -6.18411                      -6.78370                     -35.81260
                      -6.38387                      -6.99464                     -36.92893
                      -6.58444                      -7.20558                     -38.04674
                      -6.78582                      -7.41657                     -39.16589
                      -6.98806                      -7.62785                     -40.28660
                      -7.19120                      -7.83955                     -41.40900
                      -7.39525                      -8.05190                     -42.53298
                      -7.60018                      -8.26508                     -43.65844
                      -7.80598                      -8.47924                     -44.78520
                      -8.01263                      -8.69402                     -45.91314
                      -8.22013                      -8.90924                     -47.04219
                      -8.42843                      -9.12477                     -48.17216
                      -8.63752                      -9.34088                     -49.30303
                      -8.84733                      -9.55762                     -50.43454
                      -9.05778                      -9.77498                     -51.56636
                      -9.26877                      -9.99274                     -52.69815
                      -9.48019                     -10.21054                     -53.82959
                      -9.69188                     -10.42837                     -54.95998
                      -9.90037                     -10.71419                     -56.07673
        </DataArray>
        <DataArray type="Float32" Name="OrientationX" NumberOfComponents="3" format="ascii">
                       0.96548                      -0.25162                      -0.06737
                       0.96562                      -0.25133                      -0.06636
                       0.96673                      -0.24779                      -0.06352
                       0.96895                      -0.23947                      -0.06150
                       0.97166                      -0.22782                      -0.06310
                       0.97453                      -0.21372                      -0.06792
                       0.97728                      -0.19807                      -0.07547
                       0.97973                      -0.18168                      -0.08439
                       0.98215                      -0.16484                      -0.09059
                       0.98448                      -0.14841                      -0.09369
                       0.98619                      -0.13404                      -0.09723
                       0.98716                      -0.12234                      -0.10272
                       0.98766                      -0.11216                      -0.10934
                       0.98810                      -0.10189                      -0.11527
                       0.98843                      -0.09191                      -0.12069
                       0.98856                      -0.08249                      -0.12630
                       0.98848                      -0.07377                      -0.13215
                       0.98827                      -0.06589                      -0.13774
                       0.98812                      -0.05867                      -0.14203
                       0.98809                      -0.05204                      -0.14479
                       0.98817                      -0.04580                      -0.14638
                       0.98818                      -0.04001                      -0.14796
                       0.98795                      -0.03482                      -0.15081
                       0.98747                      -0.03020                      -0.15486
                       0.98676                      -0.02609                      -0.16008
                       0.98587                      -0.02234                      -0.16600
                       0.98521                      -0.01856                      -0.17034
                       0.98486                      -0.01477                      -0.17273
                       0.98455                      -0.01123                      -0.17476
                       0.98406                      -0.00808                      -0.17764
                       0.98329                      -0.00531                      -0.18195
                       0.98224                      -0.00280                      -0.18762
                       0.98090                      -0.00047                      -0.19451
                       0.97930                       0.00192                      -0.20240
                       0.97774                       0.00477                      -0.20975
                       0.97641                       0.00855                      -0.21574
                       0.97501                       0.01312                      -0.22175
                       0.97346                       0.01766                      -0.22816
                       0.97178                       0.02182                      -0.23486
                       0.96998                       0.02518                      -0.24188
                       0.96817                       0.02751                      -0.24879
                       0.96650                       0.02773                      -0.25516
                       0.96507                       0.02695                      -0.26061
                       0.96384                       0.02574                      -0.26522
                       0.96271                       0.02403                      -0.26947
                       0.96169                       0.02184                      -0.27328
                       0.96084                       0.01911                      -0.27643
                       0.96015                       0.01557                      -0.27906
                       0.95979                       0.01149                      -0.28047
                       0.95935                       0.00647                      -0.28215
        </DataArray>
        <DataArray type="Float32" Name="OrientationY" NumberOfComponents="3" format="ascii">
                       0.23486                       0.95274                      -0.19270
                       0.23477                       0.95281                      -0.19245
                       0.23190                       0.95376                      -0.19124
                       0.22421                       0.95592                      -0.18960
                       0.21257                       0.95881                      -0.18841
                       0.19792                       0.96210                      -0.18758
                       0.18124                       0.96550                      -0.18698
                       0.16360                       0.96877                      -0.18632
                       0.14606                       0.97184                      -0.18491
                       0.12951                       0.97455                      -0.18296
                       0.11488                       0.97670                      -0.18129
                       0.10249                       0.97829                      -0.18014
                       0.09140                       0.97956                      -0.17921
                       0.08035                       0.98073                      -0.17810
                       0.06969                       0.98176                      -0.17690
                       0.05954                       0.98264                      -0.17573
                       0.05005                       0.98337                      -0.17460
                       0.04142                       0.98396                      -0.17351
                       0.03367                       0.98445                      -0.17241
                       0.02677                       0.98485                      -0.17131
                       0.02045                       0.98519                      -0.17024
                       0.01456                       0.98547                      -0.16924
                       0.00904                       0.98568                      -0.16836
                       0.00387                       0.98585                      -0.16758
                      -0.00101                       0.98598                      -0.16688
                      -0.00564                       0.98607                      -0.16621
                      -0.01005                       0.98615                      -0.16553
                      -0.01412                       0.98622                      -0.16486
                      -0.01791                       0.98626                      -0.16424
                      -0.02145                       0.98628                      -0.16370
                      -0.02488                       0.98628                      -0.16321
                      -0.02827                       0.98627                      -0.16273
                      -0.03170                       0.98624                      -0.16224
                      -0.03535                       0.98621                      -0.16169
                      -0.03936                       0.98616                      -0.16105
                      -0.04404                       0.98609                      -0.16027
                      -0.04950                       0.98599                      -0.15931
                      -0.05499                       0.98585                      -0.15833
                      -0.06017                       0.98570                      -0.15739
                      -0.06463                       0.98555                      -0.15658
                      -0.06808                       0.98541                      -0.15600
                      -0.06944                       0.98532                      -0.15594
                      -0.06969                       0.98527                      -0.15619
                      -0.06940                       0.98522                      -0.15658
                      -0.06857                       0.98520                      -0.15710
                      -0.06720                       0.98519                      -0.15775
                      -0.06520                       0.98520                      -0.15854
                      -0.06235                       0.98522                      -0.15954
                      -0.05875                       0.98525                      -0.16071
                      -0.05431                       0.98529                      -0.16206
        </DataArray>
        <DataArray type="Float32" Name="OrientationZ" NumberOfComponents="3" format="ascii">
                       0.11268                       0.17022                       0.97894
                       0.11160                       0.17025                       0.97906
                       0.10797                       0.17015                       0.97949
                       0.10419                       0.16992                       0.97993
                       0.10342                       0.16965                       0.98006
                       0.10543                       0.16936                       0.97990
                       0.10990                       0.16905                       0.97946
                       0.11561                       0.16874                       0.97886
                       0.11852                       0.16838                       0.97857
                       0.11846                       0.16798                       0.97865
                       0.11927                       0.16762                       0.97861
                       0.12252                       0.16730                       0.97826
                       0.12720                       0.16700                       0.97772
                       0.13119                       0.16672                       0.97724
                       0.13475                       0.16645                       0.97680
                       0.13861                       0.16620                       0.97630
                       0.14284                       0.16597                       0.97573