<?xml version="1.0"?>
<VTKFile type="PolyData" version="0.1" byte_order="LittleEndian">
  <PolyData>
    <Piece NumberOfPoints="      3" NumberOfVerts="  0" NumberOfLines="      2"
           NumberOfStrips="  0" NumberOfPolys="      0">
      <Points>
        <DataArray type="Float32" NumberOfComponents="3" format="ascii">
                      29.19102                      -0.39220                     147.64821
                      29.19140                      -0.39224                     147.65320
                      29.19063                      -0.39216                     147.64323
        </DataArray>
      </Points>
      <PointData>
        <DataArray type="Float32" Name="TranslationalVelocity" NumberOfComponents="3" format="ascii">
                      -0.28615                      -0.10887                       0.05186
                      -0.28615                      -0.10887                       0.05186
                      -0.28615                      -0.10887                       0.05186
        </DataArray>
        <DataArray type="Float32" Name="RotationalVelocity" NumberOfComponents="3" format="ascii">
                       0.00077                       0.00021                       0.00013
                       0.00077                       0.00021                       0.00013
                       0.00077                       0.00021                       0.00013
        </DataArray>
        <DataArray type="Float32" Name="TranslationalAcceleration" NumberOfComponents="3" format="ascii">
                       0.01366                       0.00403                       0.01075
                       0.01366                       0.00403                       0.01075
                       0.01366                       0.00403                       0.01075
        </DataArray>
        <DataArray type="Float32" Name="RotationalAcceleration" NumberOfComponents="3" format="ascii">
                       0.00013                      -0.00004                       0.00074
                       0.00013                      -0.00004                       0.00074
                       0.00013                      -0.00004                       0.00074
        </DataArray>
        <DataArray type="Float32" Name="OrientationX" NumberOfComponents="3" format="ascii">
                       0.99708                       0.00264                      -0.07627
                       0.99708                       0.00264                      -0.07627
                       0.99708                       0.00264                      -0.07627
        </DataArray>
        <DataArray type="Float32" Name="OrientationY" NumberOfComponents="3" format="ascii">
                      -0.00208                       0.99997                       0.00734
                      -0.00208                       0.99997                       0.00734
                      -0.00208                       0.99997                       0.00734
        </DataArray>
        <DataArray type="Float32" Name="OrientationZ" NumberOfComponents="3" format="ascii">
                       0.07628                      -0.00716                       0.99706
                       0.07628                      -0.00716                       0.99706
                       0.07628                      -0.00716                       0.99706
        </DataArray>
      </PointData>
      <Lines>
        <DataArray type="Int32" Name="connectivity" format="ascii">
      0      1
      2      0
        </DataArray>
        <DataArray type="Int32" Name="offsets" format="ascii">
      2
      4
        </DataArray>
      </Lines>
    </Piece>
  </PolyData>
</VTKFile>
