<?xml version="1.0"?>
<VTKFile type="PolyData" version="0.1" byte_order="LittleEndian">
  <PolyData>
    <Piece NumberOfPoints="     50" NumberOfVerts="  0" NumberOfLines="     49"
           NumberOfStrips="  0" NumberOfPolys="      0">
      <Points>
        <DataArray type="Float32" NumberOfComponents="3" format="ascii">
                      15.20256                      -4.08505                     151.82315
                      15.28212                      -6.22108                     152.89050
                      15.35079                      -8.37191                     153.92637
                      15.39422                     -10.55176                     154.90055
                      15.42373                     -12.75151                     155.83207
                      15.45002                     -14.96246                     156.73906
                      15.48353                     -17.17493                     157.64187
                      15.53562                     -19.37514                     158.56975
                      15.60936                     -21.55714                     159.53549
                      15.68148                     -23.74261                     160.49314
                      15.75307                     -25.92856                     161.44931
                      15.83115                     -28.10902                     162.41675
                      15.92634                     -30.27655                     163.41113
                      16.03565                     -32.43701                     164.41979
                      16.15199                     -34.60044                     165.42104
                      16.27603                     -36.76698                     166.41441
                      16.40884                     -38.93582                     167.40147
                      16.55152                     -41.10692                     168.38205
                      16.70290                     -43.27937                     169.35831
                      16.85924                     -45.45265                     170.33205
                      17.01797                     -47.62664                     171.30417
                      17.17657                     -49.80164                     172.27484
                      17.33764                     -51.97821                     173.24263
                      17.50479                     -54.15674                     174.20613
                      17.68042                     -56.33714                     175.16521
                      17.86791                     -58.51942                     176.11903
                      18.06729                     -60.70363                     177.06747
                      18.27127                     -62.89013                     178.01202
                      18.47846                     -65.07859                     178.95438
                      18.68906                     -67.26944                     179.89408
                      18.90717                     -69.46258                     180.83051
                      19.13587                     -71.65789                     181.76319
                      19.37890                     -73.85494                     182.69184
                      19.63871                     -76.05342                     183.61620
                      19.91768                     -78.25300                     184.53584
                      20.21085                     -80.45394                     185.45223
                      20.51646                     -82.65639                     186.36593
                      20.83615                     -84.85996                     187.27705
                      21.17052                     -87.06440                     188.18579
                      21.52105                     -89.26926                     189.09212
                      21.88851                     -91.47449                     189.99515
                      22.27234                     -93.68006                     190.89465
                      22.67223                     -95.88575                     191.79045
                      23.08511                     -98.09149                     192.68380
                      23.51058                    -100.29686                     193.57496
                      23.94775                    -102.50144                     194.46422
                      24.39560                    -104.70490                     195.35150
                      24.85205                    -106.90708                     196.23675
                      25.31683                    -109.10703                     197.12020
                      25.80975                    -111.24901                     198.13107
        </DataArray>
      </Points>
      <PointData>
        <DataArray type="Float32" Name="TranslationalVelocity" NumberOfComponents="3" format="ascii">
                      -0.31089                      -1.29645                      -2.57528
                      -0.58141                      -2.06647                      -4.09611
                      -0.85402                      -2.81271                      -5.62749
                      -1.13072                      -3.51183                      -7.17953
                      -1.41027                      -4.17887                      -8.74584
                      -1.69146                      -4.82811                     -10.32035
                      -1.97293                      -5.47540                     -11.89623
                      -2.25278                      -6.14305                     -13.46377
                      -2.53015                      -6.84059                     -15.01874
                      -2.80808                      -7.53230                     -16.57650
                      -3.08614                      -8.22301                     -18.13491
                      -3.36348                      -8.92274                     -19.68976
                      -3.63907                      -9.64404                     -21.23581
                      -3.91371                     -10.37750                     -22.77719
                      -4.18880                     -11.10673                     -24.32103
                      -4.46437                     -11.83149                     -25.86743
                      -4.74030                     -12.55301                     -27.41580
                      -5.01659                     -13.27133                     -28.96612
                      -5.29309                     -13.98782                     -30.51771
                      -5.56975                     -14.70327                     -32.07018
                      -5.84655                     -15.41799                     -33.62343
                      -6.12354                     -16.13179                     -35.17764
                      -6.40079                     -16.84395                     -36.73322
                      -6.67839                     -17.55396                     -38.29048
                      -6.95634                     -18.26202                     -39.84934
                      -7.23466                     -18.96796                     -41.40983
                      -7.51336                     -19.67171                     -42.97199
                      -7.79251                     -20.37338                     -44.53605
                      -8.07209                     -21.07402                     -46.10176
                      -8.35216                     -21.77331                     -47.66945
                      -8.63275                     -22.47135                     -49.23906
                      -8.91386                     -23.16821                     -50.81054
                      -9.19546                     -23.86418                     -52.38361
                      -9.47754                     -24.55939                     -53.95807
                      -9.76008                     -25.25386                     -55.53369
                     -10.04314                     -25.94800                     -57.11067
                     -10.32674                     -26.64198                     -58.68910
                     -10.61086                     -27.33611                     -60.26872
                     -10.89549                     -28.03062                     -61.84937
                     -11.18057                     -28.72568                     -63.43072
                     -11.46613                     -29.42077                     -65.01275
                     -11.75216                     -30.11565                     -66.59542
                     -12.03864                     -30.81015                     -68.17856
                     -12.32557                     -31.50477                     -69.76209
                     -12.61286                     -32.19965                     -71.34565
                     -12.90047                     -32.89484                     -72.92893
                     -13.18831                     -33.59016                     -74.51161
                     -13.47635                     -34.28527                     -76.09350
                     -13.76441                     -34.98028                     -77.67384
                     -14.04459                     -35.77044                     -79.21264
        </DataArray>
        <DataArray type="Float32" Name="RotationalVelocity" NumberOfComponents="3" format="ascii">
                       0.71179                       0.00506                      -0.12918
                       0.71182                       0.00506                      -0.12918
                       0.71186                       0.00505                      -0.12919
                       0.71193                       0.00505                      -0.12920
                       0.71203                       0.00504                      -0.12923
                       0.71214                       0.00502                      -0.12926
                       0.71226                       0.00501                      -0.12929
                       0.71239                       0.00500                      -0.12931
                       0.71253                       0.00499                      -0.12934
                       0.71267                       0.00498                      -0.12937
                       0.71282                       0.00497                      -0.12939
                       0.71297                       0.00496                      -0.12941
                       0.71312                       0.00496                      -0.12943
                       0.71326                       0.00495                      -0.12944
                       0.71340                       0.00495                      -0.12945
                       0.71354                       0.00494                      -0.12947
                       0.71367                       0.00494                      -0.12948
                       0.71380                       0.00494                      -0.12949
                       0.71392                       0.00493                      -0.12950
                       0.71404                       0.00493                      -0.12952
                       0.71415                       0.00492                      -0.12953
                       0.71427                       0.00491                      -0.12955
                       0.71437                       0.00490                      -0.12958
                       0.71448                       0.00489                      -0.12960
                       0.71459                       0.00488                      -0.12964
                       0.71469                       0.00486                      -0.12968
                       0.71480                       0.00484                      -0.12973
                       0.71490                       0.00482                      -0.12978
                       0.71501                       0.00479                      -0.12984
                       0.71512                       0.00476                      -0.12991
                       0.71524                       0.00472                      -0.12999
                       0.71535                       0.00468                      -0.13008
                       0.71548                       0.00464                      -0.13018
                       0.71560                       0.00459                      -0.13028
                       0.71573                       0.00454                      -0.13039
                       0.71587                       0.00449                      -0.13051
                       0.71601                       0.00443                      -0.13064
                       0.71615                       0.00437                      -0.13077
                       0.71629                       0.00431                      -0.13091
                       0.71643                       0.00424                      -0.13105
                       0.71657                       0.00418                      -0.13120
                       0.71671                       0.00411                      -0.13135
                       0.71684                       0.00404                      -0.13150
                       0.71696                       0.00398                      -0.13164
                       0.71707                       0.00391                      -0.13179
                       0.71716                       0.00385                      -0.13193
                       0.71723                       0.00379                      -0.13206
                       0.71727                       0.00373                      -0.13218
                       0.71727                       0.00368                      -0.13228
                       0.71725                       0.00364                      -0.13237
        </DataArray>
        <DataArray type="Float32" Name="TranslationalAcceleration" NumberOfComponents="3" format="ascii">
                      -0.15437                       1.88700                      -0.85604
                      -0.26019                       3.00595                      -1.39991
                      -0.36296                       4.13274                      -1.92675
                      -0.45970                       5.27486                      -2.41981
                      -0.55233                       6.42771                      -2.88972
                      -0.64267                       7.58687                      -3.34659
                      -0.73273                       8.74740                      -3.80168
                      -0.82540                       9.90224                      -4.27088
                      -0.92189                      11.04835                      -4.76099
                      -1.01769                      12.19695                      -5.24647
                      -1.11343                      13.34650                      -5.73077
                      -1.21042                      14.49394                      -6.22105
                      -1.31027                      15.63545                      -6.72630
                      -1.41182                      16.77407                      -7.23980
                      -1.51299                      17.91494                      -7.74984
                      -1.61376                      19.05814                      -8.25623
                      -1.71431                      20.20322                      -8.75988
                      -1.81465                      21.35013                      -9.26081
                      -1.91497                      22.49838                      -9.76002
                      -2.01537                      23.64766                     -10.25809
                      -2.11590                      24.79790                     -10.75525
                      -2.21655                      25.94922                     -11.25135
                      -2.31720                      27.10192                     -11.74591
                      -2.41781                      28.25619                     -12.23854
                      -2.51839                      29.41200                     -12.72939
                      -2.61892                      30.56934                     -13.21835
                      -2.71937                      31.72826                     -13.70536
                      -2.81975                      32.88892                     -14.19048
                      -2.92020                      34.05119                     -14.67446
                      -3.02066                      35.21531                     -15.15707
                      -3.12112                      36.38126                     -15.63836
                      -3.22158                      37.54898                     -16.11836
                      -3.32207                      38.71831                     -16.59727
                      -3.42258                      39.88910                     -17.07518
                      -3.52310                      41.06120                     -17.55208
                      -3.62367                      42.23478                     -18.02825
                      -3.72430                      43.40994                     -18.50382
                      -3.82501                      44.58650                     -18.97899
                      -3.92582                      45.76435                     -19.45392
                      -4.02673                      46.94327                     -19.92875
                      -4.12767                      48.12321                     -20.40309
                      -4.22858                      49.30415                     -20.87681
                      -4.32945                      50.48593                     -21.34980
                      -4.43031                      51.66849                     -21.82245
                      -4.53117                      52.85152                     -22.29490
                      -4.63204                      54.03473                     -22.76727
                      -4.73288                      55.21781                     -23.23948
                      -4.83365                      56.40053                     -23.71140
                      -4.93435                      57.58222                     -24.18321
                      -5.04751                      58.73448                     -24.72400
        </DataArray>
        <DataArray type="Float32" Name="OrientationX" NumberOfComponents="3" format="ascii">
                       0.90059                      -0.15926                      -0.40443
                       0.90067                      -0.16015                      -0.40390
                       0.90210                      -0.16210                      -0.39993
                       0.90562                      -0.16221                      -0.39183
                       0.91067                      -0.15810                      -0.38168
                       0.91673                      -0.15032                      -0.37013
                       0.92329                      -0.13952                      -0.35786
                       0.92986                      -0.12717                      -0.34524
                       0.93617                      -0.11730                      -0.33140
                       0.94194                      -0.11047                      -0.31708
                       0.94678                      -0.10365                      -0.30474
                       0.95060                      -0.09552                      -0.29536
                       0.95381                      -0.08662                      -0.28766
                       0.95689                      -0.07836                      -0.27968
                       0.95976                      -0.07063                      -0.27181
                       0.96234                      -0.06284                      -0.26448
                       0.96462                      -0.05497                      -0.25785
                       0.96658                      -0.04755                      -0.25192
                       0.96831                      -0.04155                      -0.24627
                       0.96987                      -0.03719                      -0.24077
                       0.97132                      -0.03408                      -0.23534
                       0.97262                      -0.03109                      -0.23030
                       0.97372                      -0.02701                      -0.22615
                       0.97461                      -0.02191                      -0.22283
                       0.97531                      -0.01580                      -0.22026
                       0.97586                      -0.00909                      -0.21819
                       0.97645                      -0.00395                      -0.21569
                       0.97712                      -0.00074                      -0.21269
                       0.97774                       0.00204                      -0.20983
                       0.97821                       0.00553                      -0.20753
                       0.97851                       0.01033                      -0.20593
                       0.97865                       0.01637                      -0.20490
                       0.97862                       0.02358                      -0.20430
                       0.97848                       0.03177                      -0.20388
                       0.97841                       0.03953                      -0.20285
                       0.97858                       0.04616                      -0.20062
                       0.97885                       0.05300                      -0.19761
                       0.97901                       0.06020                      -0.19470
                       0.97902                       0.06761                      -0.19222
                       0.97880                       0.07514                      -0.19055
                       0.97836                       0.08230                      -0.18982
                       0.97761                       0.08841                      -0.19097
                       0.97677                       0.09337                      -0.19287
                       0.97596                       0.09738                      -0.19497
                       0.97510                       0.10092                      -0.19748
                       0.97420                       0.10391                      -0.20034
                       0.97329                       0.10613                      -0.20358
                       0.97230                       0.10765                      -0.20747
                       0.97138                       0.10784                      -0.21163
                       0.97023                       0.10812                      -0.21673
        </DataArray>
        <DataArray type="Float32" Name="OrientationY" NumberOfComponents="3" format="ascii">
                       0.43375                       0.38937                       0.81256
                       0.43366                       0.38909                       0.81274
                       0.43090                       0.38852                       0.81448
                       0.42363                       0.38854                       0.81827
                       0.41271                       0.38977                       0.82326
                       0.39897                       0.39188                       0.82901
                       0.38331                       0.39453                       0.83512
                       0.36668                       0.39722                       0.84129
                       0.35001                       0.39911                       0.84747
                       0.33419                       0.40021                       0.85332
                       0.32016                       0.40111                       0.85826
                       0.30828                       0.40199                       0.86219
                       0.29763                       0.40280                       0.86555
                       0.28698                       0.40341                       0.86885
                       0.27667                       0.40384                       0.87199
                       0.26684                       0.40419                       0.87489
                       0.25762                       0.40444                       0.87753
                       0.24923                       0.40458                       0.87989
                       0.24168                       0.40453                       0.88201
                       0.23494                       0.40435                       0.88391
                       0.22876                       0.40408                       0.88566
                       0.22300                       0.40381                       0.88725
                       0.21760                       0.40358                       0.88869
                       0.21255                       0.40339                       0.89000
                       0.20780                       0.40320                       0.89121
                       0.20327                       0.40301                       0.89234
                       0.19898                       0.40274                       0.89342
                       0.19500                       0.40243                       0.89444
                       0.19131                       0.40211                       0.89538
                       0.18787                       0.40180                       0.89625
                       0.18455                       0.40150                       0.89707
                       0.18127                       0.40119                       0.89788
                       0.17795                       0.40086                       0.89869
                       0.17443                       0.40049                       0.89955
                       0.17053                       0.40008                       0.90047
                       0.16597                       0.39963                       0.90153
                       0.16063                       0.39911                       0.90272
                       0.15526                       0.39857                       0.90390
                       0.15020                       0.39800                       0.90500
                       0.14585                       0.39746                       0.90596
                       0.14252                       0.39696                       0.90670
                       0.14131                       0.39665                       0.90703
                       0.14122                       0.39646                       0.90712
                       0.14167                       0.39637                       0.90709
                       0.14265                       0.39636                       0.90695
                       0.14417                       0.39643                       0.90667
                       0.14631                       0.39661                       0.90625
                       0.14930                       0.39693                       0.90563
                       0.15301                       0.39739                       0.90480
                       0.15754                       0.39797                       0.90377
        </DataArray>
        <DataArray type="Float32" Name="OrientationZ" NumberOfComponents="3" format="ascii">
                       0.02806                      -0.90721                       0.41974
                       0.02700                      -0.90717                       0.41990
                       0.02336                      -0.90707                       0.42033
                       0.01951                      -0.90704                       0.42059
                       0.01861                      -0.90724                       0.42020
                       0.02043                      -0.90765                       0.41922
                       0.02467                      -0.90823                       0.41775
                       0.03015                      -0.90887                       0.41599
                       0.03285                      -0.90937                       0.41469
                       0.03263                      -0.90974                       0.41389
                       0.03328                      -0.91015                       0.41295
                       0.03638                      -0.91065                       0.41158
                       0.04089                      -0.91118                       0.40997
                       0.04474                      -0.91166                       0.40850
                       0.04818                      -0.91210                       0.40713
                       0.05192                      -0.91251                       0.40574
                       0.05605                      -0.91291                       0.40430