<?xml version="1.0"?>
<VTKFile type="PolyData" version="0.1" byte_order="LittleEndian">
  <PolyData>
    <Piece NumberOfPoints="     50" NumberOfVerts="  0" NumberOfLines="     49"
           NumberOfStrips="  0" NumberOfPolys="      0">
      <Points>
        <DataArray type="Float32" NumberOfComponents="3" format="ascii">
                      15.01003                      -2.78708                     153.02200
                      15.22033                      -4.33057                     154.83351
                      15.42122                      -5.90059                     156.62195
                      15.59980                      -7.52285                     158.36522
                      15.76649                      -9.18079                     160.07722
                      15.93110                     -10.85862                     161.77116
                      16.10312                     -12.53882                     163.46192
                      16.29252                     -14.19656                     165.17095
                      16.50177                     -15.82118                     166.90767
                      16.70978                     -17.45203                     168.63853
                      16.91732                     -19.08372                     170.36842
                      17.13081                     -20.70532                     172.10668
                      17.36011                     -22.30318                     173.86469
                      17.60278                     -23.88780                     175.63311
                      17.85277                     -25.47732                     177.39595
                      18.11073                     -27.07203                     179.15283
                      18.37766                     -28.67051                     180.90485
                      18.65465                     -30.27271                     182.65185
                      18.94044                     -31.87705                     184.39544
                      19.23124                     -33.48261                     186.13713
                      19.52446                     -35.08911                     187.87775
                      19.81760                     -36.69694                     189.61759
                      20.11334                     -38.30701                     191.35551
                      20.41531                     -39.91995                     193.09033
                      20.72591                     -41.53560                     194.82183
                      21.04855                     -43.15404                     196.54922
                      21.38325                     -44.77539                     198.27241
                      21.72277                     -46.39987                     199.99299
                      22.06568                     -48.02661                     201.71244
                      22.41222                     -49.65617                     203.43050
                      22.76650                     -51.28843                     205.14650
                      23.13161                     -52.92321                     206.85993
                      23.51125                     -54.56000                     208.57032
                      23.90787                     -56.19842                     210.27727
                      24.32384                     -57.83816                     211.98025
                      24.75424                     -59.47924                     213.68077
                      25.19729                     -61.12166                     215.37943
                      25.65464                     -62.76493                     217.07618
                      26.12686                     -64.40867                     218.77108
                      26.61541                     -66.05238                     220.46392
                      27.12109                     -67.69632                     222.15385
                      27.64332                     -69.34057                     223.84063
                      28.18181                     -70.98504                     225.52403
                      28.73346                     -72.62939                     227.20520
                      29.29784                     -74.27318                     228.88420
                      29.87403                     -75.91599                     230.56112
                      30.46098                     -77.55765                     232.23572
                      31.05660                     -79.19821                     233.90791
                      31.66054                     -80.83678                     235.57747
                      32.28678                     -82.37021                     237.34105
        </DataArray>
      </Points>
      <PointData>
        <DataArray type="Float32" Name="TranslationalVelocity" NumberOfComponents="3" format="ascii">
                      -0.23670                      -2.21822                      -1.86505
                      -0.42932                      -3.54281                      -2.97130
                      -0.62551                      -4.84976                      -4.09659
                      -0.82876                      -6.12167                      -5.25937
                      -1.03686                      -7.36988                      -6.44790
                      -1.24772                      -8.60521                      -7.65102
                      -1.45896                      -9.83959                      -8.85626
                      -1.66725                     -11.08973                     -10.04590
                      -1.87113                     -12.36276                     -11.21232
                      -2.07588                     -13.63189                     -12.38366
                      -2.28075                     -14.90073                     -13.55606
                      -2.48424                     -16.17684                     -14.72171
                      -2.68452                     -17.46969                     -15.87083
                      -2.88296                     -18.77225                     -17.01094
                      -3.08200                     -20.07225                     -18.15505
                      -3.28166                     -21.36946                     -19.30334
                      -3.48176                     -22.66481                     -20.45481
                      -3.68226                     -23.95829                     -21.60941
                      -3.88296                     -25.25088                     -22.76598
                      -4.08372                     -26.54317                     -23.92384
                      -4.28452                     -27.83540                     -25.08276
                      -4.48540                     -29.12744                     -26.24300
                      -4.68650                     -30.41881                     -27.40521
                      -4.88792                     -31.70913                     -28.56989
                      -5.08966                     -32.99856                     -29.73689
                      -5.29175                     -34.28695                     -30.90632
                      -5.49421                     -35.57425                     -32.07826
                      -5.69711                     -36.86068                     -33.25283
                      -5.90034                     -38.14712                     -34.42941
                      -6.10401                     -39.43343                     -35.60842
                      -6.30812                     -40.71967                     -36.78980
                      -6.51269                     -42.00589                     -37.97346
                      -6.71769                     -43.29227                     -39.15905
                      -6.92310                     -44.57883                     -40.34634
                      -7.12891                     -45.86554                     -41.53512
                      -7.33515                     -47.15285                     -42.72539
                      -7.54184                     -48.44101                     -43.91718
                      -7.74894                     -49.73019                     -45.11013
                      -7.95644                     -51.02053                     -46.30398
                      -8.16428                     -52.31209                     -47.49838
                      -8.37252                     -53.60435                     -48.69353
                      -8.58120                     -54.89708                     -49.88945
                      -8.79030                     -56.19003                     -51.08606
                      -8.99980                     -57.48363                     -52.28307
                      -9.20963                     -58.77780                     -53.48011
                      -9.41973                     -60.07246                     -54.67682
                      -9.63006                     -61.36722                     -55.87299
                      -9.84061                     -62.66164                     -57.06854
                     -10.05123                     -63.95542                     -58.26271
                     -10.24788                     -65.32049                     -59.38048
        </DataArray>
        <DataArray type="Float32" Name="RotationalVelocity" NumberOfComponents="3" format="ascii">
                       0.71607                       0.00466                      -0.13026
                       0.71611                       0.00466                      -0.13026
                       0.71620                       0.00465                      -0.13028
                       0.71633                       0.00464                      -0.13030
                       0.71651                       0.00463                      -0.13032
                       0.71671                       0.00462                      -0.13035
                       0.71695                       0.00461                      -0.13038
                       0.71720                       0.00461                      -0.13041
                       0.71746                       0.00461                      -0.13043
                       0.71774                       0.00462                      -0.13045
                       0.71802                       0.00463                      -0.13046
                       0.71830                       0.00466                      -0.13047
                       0.71857                       0.00468                      -0.13047
                       0.71885                       0.00471                      -0.13046
                       0.71911                       0.00475                      -0.13046
                       0.71937                       0.00479                      -0.13045
                       0.71963                       0.00483                      -0.13043
                       0.71987                       0.00487                      -0.13042
                       0.72011                       0.00491                      -0.13040
                       0.72033                       0.00495                      -0.13038
                       0.72056                       0.00499                      -0.13037
                       0.72077                       0.00503                      -0.13036
                       0.72098                       0.00506                      -0.13034
                       0.72119                       0.00509                      -0.13034
                       0.72140                       0.00512                      -0.13033
                       0.72161                       0.00514                      -0.13034
                       0.72181                       0.00515                      -0.13035
                       0.72203                       0.00515                      -0.13036
                       0.72224                       0.00515                      -0.13039
                       0.72246                       0.00513                      -0.13042
                       0.72269                       0.00511                      -0.13046
                       0.72293                       0.00508                      -0.13051
                       0.72317                       0.00505                      -0.13056
                       0.72343                       0.00500                      -0.13063
                       0.72369                       0.00494                      -0.13070
                       0.72396                       0.00488                      -0.13078
                       0.72423                       0.00481                      -0.13087
                       0.72452                       0.00473                      -0.13097
                       0.72480                       0.00465                      -0.13107
                       0.72509                       0.00456                      -0.13118
                       0.72537                       0.00446                      -0.13129
                       0.72565                       0.00436                      -0.13141
                       0.72591                       0.00426                      -0.13152
                       0.72615                       0.00416                      -0.13164
                       0.72637                       0.00405                      -0.13175
                       0.72656                       0.00395                      -0.13186
                       0.72670                       0.00385                      -0.13197
                       0.72679                       0.00375                      -0.13206
                       0.72682                       0.00366                      -0.13215
                       0.72680                       0.00358                      -0.13222
        </DataArray>
        <DataArray type="Float32" Name="TranslationalAcceleration" NumberOfComponents="3" format="ascii">
                      -0.26172                       1.39587                      -1.52877
                      -0.43741                       2.21528                      -2.47478
                      -0.61090                       3.04891                      -3.40813
                      -0.77999                       3.91051                      -4.31630
                      -0.94614                       4.79153                      -5.20742
                      -1.11072                       5.68380                      -6.08926
                      -1.27524                       6.57819                      -6.97039
                      -1.44186                       7.46165                      -7.86285
                      -1.61148                       8.32858                      -8.77182
                      -1.78077                       9.19980                      -9.67797
                      -1.95019                      10.07246                     -10.58390
                      -2.12073                      10.94078                     -11.49509
                      -2.29360                      11.79756                     -12.41840
                      -2.46794                      12.64831                     -13.34876
                      -2.64220                      13.50264                     -14.27729
                      -2.81637                      14.36067                     -15.20380
                      -2.99059                      15.22163                     -16.12897
                      -3.16485                      16.08548                     -17.05278
                      -3.33929                      16.95133                     -17.97594
                      -3.51400                      17.81866                     -18.89886
                      -3.68899                      18.68729                     -19.82172
                      -3.86427                      19.55741                     -20.74442
                      -4.03977                      20.42948                     -21.66662
                      -4.21545                      21.30387                     -22.58802
                      -4.39132                      22.18048                     -23.50873
                      -4.56737                      23.05937                     -24.42865
                      -4.74358                      23.94060                     -25.34773
                      -4.91998                      24.82430                     -26.26613
                      -5.09668                      25.71004                     -27.18450
                      -5.27366                      26.59813                     -28.10272
                      -5.45093                      27.48856                     -29.02086
                      -5.62848                      28.38127                     -29.93893
                      -5.80633                      29.27604                     -30.85706
                      -5.98447                      30.17271                     -31.77528
                      -6.16288                      31.07115                     -32.69356
                      -6.34163                      31.97139                     -33.61224
                      -6.52074                      32.87349                     -34.53149
                      -6.70022                      33.77718                     -35.45147
                      -6.88008                      34.68232                     -36.37227
                      -7.06032                      35.58862                     -37.29395
                      -7.24086                      36.49622                     -38.21612
                      -7.42166                      37.40514                     -39.13862
                      -7.60267                      38.31529                     -40.06129
                      -7.78392                      39.22642                     -40.98443
                      -7.96540                      40.13818                     -41.90802
                      -8.14707                      41.05023                     -42.83197
                      -8.32885                      41.96231                     -43.75602
                      -8.51066                      42.87423                     -44.67985
                      -8.69243                      43.78524                     -45.60323
                      -8.88350                      44.63966                     -46.57940
        </DataArray>
        <DataArray type="Float32" Name="OrientationX" NumberOfComponents="3" format="ascii">
                       0.91493                      -0.24178                      -0.32317
                       0.91507                      -0.24239                      -0.32234
                       0.91656                      -0.24255                      -0.31794
                       0.91998                      -0.23928                      -0.31047
                       0.92459                      -0.23122                      -0.30276
                       0.92995                      -0.21919                      -0.29521
                       0.93558                      -0.20407                      -0.28818
                       0.94111                      -0.18738                      -0.28141
                       0.94654                      -0.17253                      -0.27257
                       0.95164                      -0.16031                      -0.26209
                       0.95582                      -0.14893                      -0.25342
                       0.95895                      -0.13758                      -0.24796
                       0.96144                      -0.12621                      -0.24435
                       0.96384                      -0.11533                      -0.24023
                       0.96606                      -0.10500                      -0.23600
                       0.96801                      -0.09483                      -0.23229
                       0.96966                      -0.08489                      -0.22926
                       0.97102                      -0.07565                      -0.22669
                       0.97227                      -0.06785                      -0.22382
                       0.97345                      -0.06162                      -0.22045
                       0.97461                      -0.05656                      -0.21665
                       0.97564                      -0.05178                      -0.21318
                       0.97640                      -0.04635                      -0.21094
                       0.97690                      -0.04032                      -0.20986
                       0.97715                      -0.03367                      -0.20987
                       0.97721                      -0.02667                      -0.21058
                       0.97742                      -0.02093                      -0.21028
                       0.97782                      -0.01677                      -0.20877
                       0.97821                      -0.01305                      -0.20722
                       0.97841                      -0.00891                      -0.20648
                       0.97836                      -0.00385                      -0.20688
                       0.97806                       0.00213                      -0.20830
                       0.97754                       0.00899                      -0.21057
                       0.97682                       0.01669                      -0.21339
                       0.97620                       0.02423                      -0.21550
                       0.97588                       0.03123                      -0.21605
                       0.97563                       0.03873                      -0.21598
                       0.97525                       0.04653                      -0.21615
                       0.97471                       0.05434                      -0.21678
                       0.97393                       0.06193                      -0.21821
                       0.97299                       0.06879                      -0.22037
                       0.97182                       0.07394                      -0.22384
                       0.97066                       0.07773                      -0.22755
                       0.96959                       0.08058                      -0.23107
                       0.96851                       0.08283                      -0.23478
                       0.96744                       0.08443                      -0.23861
                       0.96641                       0.08518                      -0.24247
                       0.96536                       0.08502                      -0.24666
                       0.96449                       0.08354                      -0.25057
                       0.96338                       0.08174                      -0.25538
        </DataArray>
        <DataArray type="Float32" Name="OrientationY" NumberOfComponents="3" format="ascii">
                       0.39475                       0.70286                       0.59174
                       0.39467                       0.70268                       0.59201
                       0.39193                       0.70267                       0.59384
                       0.38463                       0.70370                       0.59738
                       0.37357                       0.70607                       0.60159
                       0.35964                       0.70937                       0.60619
                       0.34373                       0.71317                       0.61093
                       0.32686                       0.71698                       0.61571
                       0.31002                       0.72005                       0.62082
                       0.29406                       0.72233                       0.62591
                       0.27993                       0.72421                       0.63021
                       0.26795                       0.72581                       0.63356
                       0.25721                       0.72721                       0.63640
                       0.24649                       0.72841                       0.63927
                       0.23612                       0.72940                       0.64204
                       0.22623                       0.73025                       0.64464
                       0.21697                       0.73096                       0.64701
                       0.20855                       0.73149                       0.64918
                       0.20097                       0.73183                       0.65118
                       0.19422                       0.73201                       0.65302
                       0.18803                       0.73208                       0.65475
                       0.18226                       0.73212                       0.65633
                       0.17686                       0.73217                       0.65776
                       0.17180                       0.73222                       0.65905
                       0.16704                       0.73225                       0.66023
                       0.16250                       0.73227                       0.66135
                       0.15820                       0.73222                       0.66244
                       0.15422                       0.73212                       0.66349
                       0.15053                       0.73200                       0.66446
                       0.14708                       0.73189                       0.66536
                       0.14375                       0.73178                       0.66621
                       0.14047                       0.73166                       0.66704
                       0.13714                       0.73152                       0.66789
                       0.13360                       0.73135                       0.66878
                       0.12970                       0.73115                       0.66977
                       0.12514                       0.73092                       0.67089
                       0.11980                       0.73063                       0.67218
                       0.11442                       0.73031                       0.67347
                       0.10936                       0.72996                       0.67468
                       0.10501                       0.72962                       0.67574
                       0.10167                       0.72931                       0.67658
                       0.10044                       0.72915                       0.67694
                       0.10032                       0.72909                       0.67702
                       0.10074                       0.72910                       0.67695
                       0.10169                       0.72916                       0.67674
                       0.10318                       0.72928                       0.67639
                       0.10528                       0.72948                       0.67585
                       0.10823                       0.72976                       0.67509
                       0.11189                       0.73013                       0.67409
                       0.11638                       0.73056                       0.67285
        </DataArray>
        <DataArray type="Float32" Name="OrientationZ" NumberOfComponents="3" format="ascii">
                       0.08407                      -0.66898                       0.73851
                       0.08301                      -0.66894                       0.73866
                       0.07937                      -0.66890                       0.73910
                       0.07554                      -0.66899                       0.73942
                       0.07467                      -0.66933                       0.73920
                       0.07654                      -0.66989                       0.73850
                       0.08085                      -0.67063                       0.73738
                       0.08639                      -0.67144                       0.73601
                       0.08915                      -0.67213                       0.73504
                       0.08898                      -0.67271                       0.73454
                       0.08967                      -0.67331                       0.73390
                       0.09281                      -0.67400                       0.73288
                       0.09737                      -0.67471                       0.73163
                       0.10126                      -0.67537                       0.73050
                       0.10473                      -0.67598                       0.72944
                       0.10850                      -0.67657                       0.72834
                       0.11265                      -0.67712                       0.72719