<?xml version="1.0"?>
<VTKFile type="PolyData" version="0.1" byte_order="LittleEndian">
  <PolyData>
    <Piece NumberOfPoints="      3" NumberOfVerts="  0" NumberOfLines="      2"
           NumberOfStrips="  0" NumberOfPolys="      0">
      <Points>
        <DataArray type="Float32" NumberOfComponents="3" format="ascii">
                      34.50626                      -0.29012                     147.85585
                      34.50663                      -0.29014                     147.86084
                      34.50589                      -0.29009                     147.85086
        </DataArray>
      </Points>
      <PointData>
        <DataArray type="Float32" Name="TranslationalVelocity" NumberOfComponents="3" format="ascii">
                      -0.00495                       0.07699                      -0.04531
                      -0.00495                       0.07699                      -0.04531
                      -0.00495                       0.07699                      -0.04531
        </DataArray>
        <DataArray type="Float32" Name="RotationalVelocity" NumberOfComponents="3" format="ascii">
                      -0.00044                       0.00020                       0.00032
                      -0.00044                       0.00020                       0.00032
                      -0.00044                       0.00020                       0.00032
        </DataArray>
        <DataArray type="Float32" Name="TranslationalAcceleration" NumberOfComponents="3" format="ascii">
                      -0.02277                      -0.01190                      -0.00585
                      -0.02278                      -0.01190                      -0.00585
                      -0.02277                      -0.01190                      -0.00585
        </DataArray>
        <DataArray type="Float32" Name="RotationalAcceleration" NumberOfComponents="3" format="ascii">
                       0.00010                      -0.00063                       0.00004
                       0.00010                      -0.00063                       0.00004
                       0.00010                      -0.00063                       0.00004
        </DataArray>
        <DataArray type="Float32" Name="OrientationX" NumberOfComponents="3" format="ascii">
                       0.99727                       0.00470                      -0.07368
                       0.99727                       0.00470                      -0.07368
                       0.99727                       0.00470                      -0.07368
        </DataArray>
        <DataArray type="Float32" Name="OrientationY" NumberOfComponents="3" format="ascii">
                      -0.00435                       0.99998                       0.00493
                      -0.00435                       0.99998                       0.00493
                      -0.00435                       0.99998                       0.00493
        </DataArray>
        <DataArray type="Float32" Name="OrientationZ" NumberOfComponents="3" format="ascii">
                       0.07370                      -0.00459                       0.99727
                       0.07370                      -0.00459                       0.99727
                       0.07370                      -0.00459                       0.99727
        </DataArray>
      </PointData>
      <Lines>
        <DataArray type="Int32" Name="connectivity" format="ascii">
      0      1
      2      0
        </DataArray>
        <DataArray type="Int32" Name="offsets" format="ascii">
      2
      4
        </DataArray>
      </Lines>
    </Piece>
  </PolyData>
</VTKFile>
