<?xml version="1.0"?>
<VTKFile type="PolyData" version="0.1" byte_order="LittleEndian">
  <PolyData>
    <Piece NumberOfPoints="     50" NumberOfVerts="  0" NumberOfLines="     49"
           NumberOfStrips="  0" NumberOfPolys="      0">
      <Points>
        <DataArray type="Float32" NumberOfComponents="3" format="ascii">
                      24.67945                      -0.20309                     146.14011
                      24.12856                      -0.29039                     143.81695
                      23.57267                      -0.34182                     141.49485
                      23.00327                      -0.32237                     139.17581
                      22.42794                      -0.25486                     136.85807
                      21.85377                      -0.16103                     134.54003
                      21.28726                      -0.06493                     132.22024
                      20.73422                      -0.00037                     129.89749
                      20.19538                       0.01815                     127.57170
                      19.65631                       0.04448                     125.24615
                      19.11687                       0.07129                     122.92085
                      18.58156                       0.08353                     120.59475
                      18.05783                       0.06237                     118.26614
                      17.54496                       0.02208                     115.93521
                      17.03989                      -0.01259                     113.60259
                      16.54331                      -0.04123                     111.26818
                      16.05597                      -0.06572                     108.93184
                      15.57895                      -0.08607                     106.59339
                      15.11075                      -0.10439                     104.25317
                      14.64743                      -0.12184                     101.91193
                      14.18634                      -0.13884                      99.57012
                      13.72496                      -0.15501                      97.22804
                      13.26607                      -0.16921                      94.88503
                      12.81338                      -0.18061                      92.54034
                      12.36925                      -0.18951                      90.19348
                      11.93713                      -0.19569                      87.84385
                      11.51706                      -0.19904                      85.49145
                      11.10170                      -0.19958                      83.13726
                      10.68936                      -0.19879                      80.78133
                      10.28031                      -0.19612                      78.42336
                       9.87865                      -0.19176                      76.06262
                       9.48747                      -0.18588                      73.69860
                       9.11051                      -0.17905                      71.33080
                       8.75025                      -0.17159                      68.95897
                       8.40914                      -0.16370                      66.58295
                       8.08209                      -0.15580                      64.20322
                       7.76726                      -0.14813                      61.81990
                       7.46628                      -0.14121                      59.43288
                       7.17974                      -0.13546                      57.04216
                       6.90916                      -0.13130                      54.64777
                       6.65554                      -0.12805                      52.24987
                       6.41841                      -0.12544                      49.84872
                       6.19758                      -0.12329                      47.44463
                       5.98986                      -0.12219                      45.03802
                       5.79490                      -0.12241                      42.62928
                       5.61185                      -0.12408                      40.21892
                       5.43984                      -0.12693                      37.80751
                       5.27696                      -0.13046                      35.39577
                       5.12305                      -0.13494                      32.98453
                       4.97438                      -0.28212                      30.57391
        </DataArray>
      </Points>
      <PointData>
        <DataArray type="Float32" Name="TranslationalVelocity" NumberOfComponents="3" format="ascii">
                      -0.21291                       2.77984                      -0.05640
                      -0.23504                       4.51990                      -0.11654
                      -0.25248                       6.25965                      -0.15088
                      -0.26069                       7.99860                      -0.13427
                      -0.26269                       9.73685                      -0.08315
                      -0.26134                      11.47451                      -0.01317
                      -0.25984                      13.21166                       0.05835
                      -0.26262                      14.94835                       0.10717
                      -0.27162                      16.68449                       0.12293
                      -0.27986                      18.41957                       0.14433
                      -0.28834                      20.15358                       0.16610
                      -0.29905                      21.88670                       0.17748
                      -0.31447                      23.61917                       0.16500
                      -0.33278                      25.35099                       0.13891
                      -0.35081                      27.08209                       0.11690
                      -0.36853                      28.81250                       0.09927
                      -0.38621                      30.54224                       0.08467
                      -0.40387                      32.27134                       0.07307
                      -0.42181                      33.99977                       0.06300
                      -0.44017                      35.72753                       0.05362
                      -0.45903                      37.45467                       0.04468
                      -0.47834                      39.18132                       0.03646
                      -0.49796                      40.90758                       0.02975
                      -0.51779                      42.63355                       0.02512
                      -0.53788                      44.35927                       0.02232
                      -0.55818                      46.08471                       0.02149
                      -0.57870                      47.80988                       0.02269
                      -0.59942                      49.53499                       0.02596
                      -0.62052                      51.26022                       0.03026
                      -0.64194                      52.98570                       0.03598
                      -0.66368                      54.71141                       0.04294
                      -0.68578                      56.43729                       0.05098
                      -0.70829                      58.16316                       0.05967
                      -0.73125                      59.88886                       0.06873
                      -0.75467                      61.61414                       0.07799
                      -0.77860                      63.33928                       0.08719
                      -0.80304                      65.06440                       0.09618
                      -0.82805                      66.78934                       0.10456
                      -0.85367                      68.51399                       0.11203
                      -0.87994                      70.23814                       0.11826
                      -0.90675                      71.96155                       0.12371
                      -0.93404                      73.68410                       0.12857
                      -0.96176                      75.40562                       0.13296
                      -0.98995                      77.12629                       0.13647
                      -1.01860                      78.84594                       0.13894
                      -1.04770                      80.56444                       0.14024
                      -1.07715                      82.28163                       0.14058
                      -1.10685                      83.99744                       0.14033
                      -1.13677                      85.71151                       0.13927
                      -1.18483                      87.42448                       0.03774
        </DataArray>
        <DataArray type="Float32" Name="RotationalVelocity" NumberOfComponents="3" format="ascii">
                       0.71811                       0.00463                      -0.13040
                       0.71805                       0.00463                      -0.13038
                       0.71793                       0.00463                      -0.13035
                       0.71775                       0.00464                      -0.13030
                       0.71750                       0.00467                      -0.13024
                       0.71722                       0.00471                      -0.13017
                       0.71689                       0.00477                      -0.13009
                       0.71655                       0.00485                      -0.13000
                       0.71618                       0.00494                      -0.12991
                       0.71580                       0.00506                      -0.12981
                       0.71542                       0.00519                      -0.12972
                       0.71504                       0.00534                      -0.12962
                       0.71467                       0.00551                      -0.12953
                       0.71430                       0.00569                      -0.12943
                       0.71394                       0.00588                      -0.12934
                       0.71359                       0.00609                      -0.12926
                       0.71325                       0.00630                      -0.12917
                       0.71293                       0.00652                      -0.12909
                       0.71261                       0.00675                      -0.12901
                       0.71231                       0.00698                      -0.12893
                       0.71201                       0.00722                      -0.12886
                       0.71172                       0.00746                      -0.12879
                       0.71144                       0.00769                      -0.12872
                       0.71116                       0.00793                      -0.12865
                       0.71088                       0.00817                      -0.12858
                       0.71060                       0.00840                      -0.12851
                       0.71032                       0.00863                      -0.12844
                       0.71003                       0.00886                      -0.12837
                       0.70974                       0.00908                      -0.12829
                       0.70944                       0.00930                      -0.12822
                       0.70912                       0.00952                      -0.12814
                       0.70880                       0.00972                      -0.12806
                       0.70846                       0.00992                      -0.12797
                       0.70811                       0.01012                      -0.12789
                       0.70775                       0.01031                      -0.12780
                       0.70738                       0.01049                      -0.12770
                       0.70700                       0.01066                      -0.12761
                       0.70661                       0.01082                      -0.12751
                       0.70622                       0.01098                      -0.12741
                       0.70582                       0.01113                      -0.12731
                       0.70543                       0.01127                      -0.12721
                       0.70505                       0.01140                      -0.12712
                       0.70469                       0.01152                      -0.12702
                       0.70435                       0.01162                      -0.12694
                       0.70404                       0.01171                      -0.12686
                       0.70378                       0.01178                      -0.12679
                       0.70357                       0.01184                      -0.12674
                       0.70343                       0.01189                      -0.12671
                       0.70338                       0.01191                      -0.12669
                       0.70339                       0.01193                      -0.12670
        </DataArray>
        <DataArray type="Float32" Name="TranslationalAcceleration" NumberOfComponents="3" format="ascii">
                       0.34318                      -0.00127                       2.06682
                       0.56998                       0.05492                       3.31601
                       0.79681                       0.09196                       4.56499
                       1.02374                       0.09119                       5.81337
                       1.25072                       0.06488                       7.06104
                       1.47773                       0.02466                       8.30788
                       1.70471                      -0.01661                       9.55381
                       1.93159                      -0.04094                      10.79865
                       2.15831                      -0.04072                      12.04227
                       2.38500                      -0.04457                      13.28445
                       2.61165                      -0.04862                      14.52517
                       2.83825                      -0.04490                      15.76447
                       3.06476                      -0.02347                      17.00247
                       3.29126                       0.00809                      18.23923
                       3.51785                       0.03671                      19.47482
                       3.74454                       0.06219                      20.70926
                       3.97136                       0.08554                      21.94260
                       4.19834                       0.10678                      23.17487
                       4.42549                       0.12700                      24.40606
                       4.65282                       0.14682                      25.63618
                       4.88037                       0.16644                      26.86526
                       5.10819                       0.18565                      28.09340
                       5.33632                       0.20388                      29.32071
                       5.56481                       0.22073                      30.54724
                       5.79370                       0.23638                      31.77303
                       6.02302                       0.25075                      32.99808
                       6.25281                       0.26379                      34.22238
                       6.48312                       0.27549                      35.44604
                       6.71402                       0.28661                      36.66915
                       6.94556                       0.29687                      37.89178
                       7.17778                       0.30641                      39.11391
                       7.41069                       0.31536                      40.33546
                       7.64432                       0.32405                      41.55631
                       7.87868                       0.33267                      42.77632
                       8.11377                       0.34136                      43.99531
                       8.34966                       0.35032                      45.21342
                       8.58639                       0.35963                      46.43071
                       8.82396                       0.36961                      47.64704
                       9.06238                       0.38045                      48.86236
                       9.30164                       0.39241                      50.07649
                       9.54174                       0.40512                      51.28931
                       9.78266                       0.41844                      52.50075
                      10.02439                       0.43229                      53.71074
                      10.26694                       0.44694                      54.91942
                      10.51026                       0.46251                      56.12675
                      10.75432                       0.47906                      57.33274
                      10.99905                       0.49643                      58.53739
                      11.24440                       0.51433                      59.74079
                      11.49025                       0.53290                      60.94290
                      11.73543                       0.62446                      62.14383
        </DataArray>
        <DataArray type="Float32" Name="OrientationX" NumberOfComponents="3" format="ascii">
                       0.93297                       0.28231                      -0.22330
                       0.93276                       0.28219                      -0.22433
                       0.93279                       0.27920                      -0.22792
                       0.93409                       0.27142                      -0.23194
                       0.93705                       0.25981                      -0.23333
                       0.94123                       0.24527                      -0.23221
                       0.94622                       0.22876                      -0.22878
                       0.95138                       0.21129                      -0.22411
                       0.95558                       0.19380                      -0.22204
                       0.95864                       0.17722                      -0.22274
                       0.96129                       0.16256                      -0.22248
                       0.96393                       0.15018                      -0.21973
                       0.96654                       0.13911                      -0.21552
                       0.96886                       0.12805                      -0.21195
                       0.97090                       0.11736                      -0.20876
                       0.97282                       0.10718                      -0.20525
                       0.97464                       0.09764                      -0.20134
                       0.97626                       0.08896                      -0.19749
                       0.97749                       0.08115                      -0.19475
                       0.97832                       0.07417                      -0.19338
                       0.97884                       0.06777                      -0.19308
                       0.97931                       0.06181                      -0.19270
                       0.97999                       0.05622                      -0.19095
                       0.98086                       0.05100                      -0.18794
                       0.98190                       0.04607                      -0.18369
                       0.98304                       0.04139                      -0.17867
                       0.98384                       0.03693                      -0.17521
                       0.98426                       0.03280                      -0.17368
                       0.98459                       0.02897                      -0.17246
                       0.98506                       0.02538                      -0.17035
                       0.98575                       0.02192                      -0.16676
                       0.98665                       0.01850                      -0.16178
                       0.98771                       0.01503                      -0.15555
                       0.98887                       0.01133                      -0.14833
                       0.98988                       0.00727                      -0.14172
                       0.99062                       0.00252                      -0.13660
                       0.99130                      -0.00302                      -0.13157
                       0.99198                      -0.00860                      -0.12613
                       0.99264                      -0.01385                      -0.12031
                       0.99331                      -0.01838                      -0.11402
                       0.99395                      -0.02187                      -0.10767
                       0.99456                      -0.02319                      -0.10150
                       0.99510                      -0.02336                      -0.09609
                       0.99554                      -0.02297                      -0.09145
                       0.99596                      -0.02203                      -0.08708
                       0.99633                      -0.02052                      -0.08307
                       0.99666                      -0.01838                      -0.07962
                       0.99695                      -0.01535                      -0.07655
                       0.99715                      -0.01156                      -0.07461
                       0.99737                      -0.00691                      -0.07220
        </DataArray>
        <DataArray type="Float32" Name="OrientationY" NumberOfComponents="3" format="ascii">
                       0.27601                      -0.95930                      -0.05960
                       0.27584                      -0.95934                      -0.05982
                       0.27272                      -0.96021                      -0.06013
                       0.26491                      -0.96244                      -0.05943
                       0.25352                      -0.96564                      -0.05709
                       0.23943                      -0.96944                      -0.05347
                       0.22351                      -0.97347                      -0.04897
                       0.20666                      -0.97741                      -0.04418
                       0.18965                      -0.98103                      -0.04008
                       0.17339                      -0.98417                      -0.03676
                       0.15904                      -0.98669                      -0.03374
                       0.14699                      -0.98866                      -0.03091
                       0.13623                      -0.99027                      -0.02826
                       0.12545                      -0.99177                      -0.02577
                       0.11500                      -0.99309                      -0.02347
                       0.10504                      -0.99424                      -0.02129
                       0.09572                      -0.99522                      -0.01927
                       0.08723                      -0.99603                      -0.01748
                       0.07956                      -0.99670                      -0.01599
                       0.07269                      -0.99725                      -0.01475
                       0.06638                      -0.99770                      -0.01369
                       0.06049                      -0.99809                      -0.01269
                       0.05500                      -0.99842                      -0.01169
                       0.04987                      -0.99870                      -0.01071
                       0.04505                      -0.99894                      -0.00976
                       0.04046                      -0.99914                      -0.00884
                       0.03608                      -0.99932                      -0.00802
                       0.03202                      -0.99946                      -0.00730
                       0.02825                      -0.99958                      -0.00662
                       0.02473                      -0.99968                      -0.00595
                       0.02134                      -0.99976                      -0.00527
                       0.01799                      -0.99983                      -0.00460
                       0.01459                      -0.99989                      -0.00391
                       0.01098                      -0.99993                      -0.00321
                       0.00699                      -0.99997                      -0.00246
                       0.00232                      -1.00000                      -0.00161
                      -0.00313                      -0.99999                      -0.00066
                      -0.00863                      -0.99996                       0.00029
                      -0.01381                      -0.99990                       0.00119
                      -0.01827                      -0.99983                       0.00196
                      -0.02172                      -0.99976                       0.00258
                      -0.02301                      -0.99973                       0.00296
                      -0.02316                      -0.99973                       0.00324
                      -0.02275                      -0.99974                       0.00347
                      -0.02179                      -0.99976                       0.00363
                      -0.02028                      -0.99979                       0.00373
                      -0.01814                      -0.99983                       0.00375
                      -0.01511                      -0.99988                       0.00366
                      -0.01133                      -0.99993                       0.00348
                      -0.00670                      -0.99997                       0.00319
        </DataArray>
        <DataArray type="Float32" Name="OrientationZ" NumberOfComponents="3" format="ascii">
                      -0.23104                      -0.00603                      -0.97293
                      -0.23209                      -0.00608                      -0.97268
                      -0.23564                      -0.00607                      -0.97182
                      -0.23936                      -0.00593                      -0.97091
                      -0.24015                      -0.00565                      -0.97072
                      -0.23823                      -0.00527                      -0.97119
                      -0.23392                      -0.00480                      -0.97224
                      -0.22838                      -0.00429                      -0.97356
                      -0.22560                      -0.00381                      -0.97421
                      -0.22572                      -0.00338                      -0.97419
                      -0.22500                      -0.00295                      -0.97435
                      -0.22188                      -0.00250                      -0.97507
                      -0.21735                      -0.00205                      -0.97609
                      -0.21350                      -0.00162                      -0.97694
                      -0.21008                      -0.00122                      -0.97768
                      -0.20635                      -0.00085                      -0.97848
                      -0.20225                      -0.00049                      -0.97933