<?xml version="1.0"?>
<VTKFile type="PolyData" version="0.1" byte_order="LittleEndian">
  <PolyData>
    <Piece NumberOfPoints="     51" NumberOfVerts="  0" NumberOfLines="     50"
           NumberOfStrips="  0" NumberOfPolys="      0">
      <Points>
        <DataArray type="Float32" NumberOfComponents="3" format="ascii">
                    -837.60000                       0.00000                    -200.00000
                    -820.59297                       0.00000                    -200.00582
                    -803.58594                       0.00000                    -200.00585
                    -786.57891                       0.00000                    -200.00585
                    -769.57189                       0.00000                    -200.00585
                    -752.56486                       0.00000                    -200.00585
                    -735.55783                       0.00000                    -200.00585
                    -718.55080                       0.00000                    -200.00585
                    -701.54377                       0.00000                    -200.00585
                    -684.53674                       0.00000                    -200.00585
                    -667.52971                       0.00000                    -200.00585
                    -650.52268                       0.00000                    -200.00585
                    -633.51565                       0.00000                    -200.00585
                    -616.50862                       0.00000                    -200.00585
                    -599.50160                       0.00000                    -200.00585
                    -582.49457                       0.00000                    -200.00585
                    -565.48754                       0.00000                    -200.00585
                    -548.48051                       0.00000                    -200.00585
                    -531.47348                       0.00000                    -200.00585
                    -514.46645                       0.00000                    -200.00585
                    -497.45942                       0.00000                    -200.00585
                    -480.45239                       0.00000                    -200.00585
                    -463.44537                       0.00000                    -200.00585
                    -446.43834                       0.00000                    -200.00585
                    -429.43131                       0.00000                    -200.00585
                    -412.42428                       0.00000                    -200.00585
                    -395.41725                       0.00000                    -200.00585
                    -378.41022                       0.00000                    -200.00585
                    -361.40319                       0.00000                    -200.00585
                    -344.39617                       0.00000                    -200.00582
                    -327.38914                       0.00000                    -200.00046
                    -310.42122                       0.00000                    -198.84742
                    -293.58176                       0.00000                    -196.46542
                    -276.95434                       0.00000                    -192.89147
                    -260.61369                       0.00000                    -188.17638
                    -244.62496                       0.00000                    -182.37856
                    -229.03316                       0.00000                    -175.58471
                    -213.87544                       0.00000                    -167.87031
                    -199.18084                       0.00000                    -159.30614
                    -184.96276                       0.00000                    -149.97168
                    -171.22381                       0.00000                    -139.94486
                    -157.96403                       0.00000                    -129.29193
                    -145.17740                       0.00000                    -118.07498
                    -132.85125                       0.00000                    -106.35338
                    -120.96689                       0.00000                     -94.18358
                    -109.50775                       0.00000                     -81.61206
                     -98.45934                       0.00000                     -68.67759
                     -87.80610                       0.00000                     -55.41524
                     -77.52662                       0.00000                     -41.86061
                     -67.59728                       0.00000                     -28.04693
                     -58.00000                       0.00000                     -14.00000
        </DataArray>
      </Points>
      <PointData>
        <DataArray type="Float32" Name="RefOrientationX" NumberOfComponents="3" format="ascii">
                       1.00000                       0.00000                       0.00000
                       1.00000                       0.00000                       0.00000
                       1.00000                       0.00000                       0.00000
                       1.00000                       0.00000                       0.00000
                       1.00000                       0.00000                       0.00000
                       1.00000                       0.00000                       0.00000
                       1.00000                       0.00000                       0.00000
                       1.00000                       0.00000                       0.00000
                       1.00000                       0.00000                       0.00000
                       1.00000                       0.00000                       0.00000
                       1.00000                       0.00000                       0.00000
                       1.00000                       0.00000                       0.00000
                       1.00000                       0.00000                       0.00000
                       1.00000                       0.00000                       0.00000
                       1.00000                       0.00000                       0.00000
                       1.00000                       0.00000                       0.00000
                       1.00000                       0.00000                       0.00000
                       1.00000                       0.00000                       0.00000
                       1.00000                       0.00000                       0.00000
                       1.00000                       0.00000                       0.00000
                       1.00000                       0.00000                       0.00000
                       1.00000                       0.00000                       0.00000
                       1.00000                       0.00000                       0.00000
                       1.00000                       0.00000                       0.00000
                       1.00000                       0.00000                       0.00000
                       1.00000                       0.00000                       0.00000
                       1.00000                       0.00000                       0.00000
                       1.00000                       0.00000                       0.00000
                       1.00000                       0.00000                       0.00000
                       1.00000                       0.00000                       0.00000
                       1.00000                       0.00000                       0.00000
                       1.00000                       0.00000                       0.00000
                       1.00000                       0.00000                       0.00000
                       1.00000                       0.00000                       0.00000
                       1.00000                       0.00000                       0.00000
                       1.00000                       0.00000                       0.00000
                       1.00000                       0.00000                       0.00000
                       1.00000                       0.00000                       0.00000
                       1.00000                       0.00000                       0.00000
                       1.00000                       0.00000                       0.00000
                       1.00000                       0.00000                       0.00000
                       1.00000                       0.00000                       0.00000
                       1.00000                       0.00000                       0.00000
                       1.00000                       0.00000                       0.00000
                       1.00000                       0.00000                       0.00000
                       1.00000                       0.00000                       0.00000
                       1.00000                       0.00000                       0.00000
                       1.00000                       0.00000                       0.00000
                       1.00000                       0.00000                       0.00000
                       1.00000                       0.00000                       0.00000
                       1.00000                       0.00000                       0.00000
        </DataArray>
        <DataArray type="Float32" Name="RefOrientationY" NumberOfComponents="3" format="ascii">
                       0.00000                       1.00000                       0.00000
                       0.00000                       1.00000                       0.00000
                       0.00000                       1.00000                       0.00000
                       0.00000                       1.00000                       0.00000
                       0.00000                       1.00000                       0.00000
                       0.00000                       1.00000                       0.00000
                       0.00000                       1.00000                       0.00000
                       0.00000                       1.00000                       0.00000
                       0.00000                       1.00000                       0.00000
                       0.00000                       1.00000                       0.00000
                       0.00000                       1.00000                       0.00000
                       0.00000                       1.00000                       0.00000
                       0.00000                       1.00000                       0.00000
                       0.00000                       1.00000                       0.00000
                       0.00000                       1.00000                       0.00000
                       0.00000                       1.00000                       0.00000
                       0.00000                       1.00000                       0.00000
                       0.00000                       1.00000                       0.00000
                       0.00000                       1.00000                       0.00000
                       0.00000                       1.00000                       0.00000
                       0.00000                       1.00000                       0.00000
                       0.00000                       1.00000                       0.00000
                       0.00000                       1.00000                       0.00000
                       0.00000                       1.00000                       0.00000
                       0.00000                       1.00000                       0.00000
                       0.00000                       1.00000                       0.00000
                       0.00000                       1.00000                       0.00000
                       0.00000                       1.00000                       0.00000
                       0.00000                       1.00000                       0.00000
                       0.00000                       1.00000                       0.00000
                       0.00000                       1.00000                       0.00000
                       0.00000                       1.00000                       0.00000
                       0.00000                       1.00000                       0.00000
                       0.00000                       1.00000                       0.00000
                       0.00000                       1.00000                       0.00000
                       0.00000                       1.00000                       0.00000
                       0.00000                       1.00000                       0.00000
                       0.00000                       1.00000                       0.00000
                       0.00000                       1.00000                       0.00000
                       0.00000                       1.00000                       0.00000
                       0.00000                       1.00000                       0.00000
                       0.00000                       1.00000                       0.00000
                       0.00000                       1.00000                       0.00000
                       0.00000                       1.00000                       0.00000
                       0.00000                       1.00000                       0.00000
                       0.00000                       1.00000                       0.00000
                       0.00000                       1.00000                       0.00000
                       0.00000                       1.00000                       0.00000
                       0.00000                       1.00000                       0.00000
                       0.00000                       1.00000                       0.00000
                       0.00000                       1.00000                       0.00000
        </DataArray>
        <DataArray type="Float32" Name="RefOrientationZ" NumberOfComponents="3" format="ascii">
                       0.00000                       0.00000                       1.00000
                       0.00000                       0.00000                       1.00000
                       0.00000                       0.00000                       1.00000
                       0.00000                       0.00000                       1.00000
                       0.00000                       0.00000                       1.00000
                       0.00000                       0.00000                       1.00000
                       0.00000                       0.00000                       1.00000
                       0.00000                       0.00000                       1.00000
                       0.00000                       0.00000                       1.00000
                       0.00000                       0.00000                       1.00000
                       0.00000                       0.00000                       1.00000
                       0.00000                       0.00000                       1.00000
                       0.00000                       0.00000                       1.00000
                       0.00000                       0.00000                       1.00000
                       0.00000                       0.00000                       1.00000
                       0.00000                       0.00000                       1.00000
                       0.00000                       0.00000                       1.00000
                       0.00000                       0.00000                       1.00000
                       0.00000                       0.00000                       1.00000
                       0.00000                       0.00000                       1.00000
                       0.00000                       0.00000                       1.00000
                       0.00000                       0.00000                       1.00000
                       0.00000                       0.00000                       1.00000
                       0.00000                       0.00000                       1.00000
                       0.00000                       0.00000                       1.00000
                       0.00000                       0.00000                       1.00000
                       0.00000                       0.00000                       1.00000
                       0.00000                       0.00000                       1.00000
                       0.00000                       0.00000                       1.00000
                       0.00000                       0.00000                       1.00000
                       0.00000                       0.00000                       1.00000
                       0.00000                       0.00000                       1.00000
                       0.00000                       0.00000                       1.00000
                       0.00000                       0.00000                       1.00000
                       0.00000                       0.00000                       1.00000
                       0.00000                       0.00000                       1.00000
                       0.00000                       0.00000                       1.00000
                       0.00000                       0.00000                       1.00000
                       0.00000                       0.00000                       1.00000
                       0.00000                       0.00000                       1.00000
                       0.00000                       0.00000                       1.00000
                       0.00000                       0.00000                       1.00000
                       0.00000                       0.00000                       1.00000
                       0.00000                       0.00000                       1.00000
                       0.00000                       0.00000                       1.00000
                       0.00000                       0.00000                       1.00000
                       0.00000                       0.00000                       1.00000
                       0.00000                       0.00000                       1.00000
                       0.00000                       0.00000                       1.00000
                       0.00000                       0.00000                       1.00000
                       0.00000                       0.00000                       1.00000
        </DataArray>
      </PointData>
      <Lines>
        <DataArray type="Int32" Name="connectivity" format="ascii">
      0      1
      1      2
      2      3
      3      4
      4      5
      5      6
      6      7
      7      8
      8      9
      9     10
     10     11
     11     12
     12     13
     13     14
     14     15
     15     16
     16     17
     17     18
     18     19
     19     20
     20     21
     21     22
     22     23
     23     24
     24     25
     25     26
     26     27
     27     28
     28     29
     29     30
     30     31
     31     32
     32     33
     33     34
     34     35
     35     36
     36     37
     37     38
     38     39
     39     40
     40     41
     41     42
     42     43
     43     44
     44     45
     45     46
     46     47
     47     48
     48     49
     49     50
        </DataArray>
        <DataArray type="Int32" Name="offsets" format="ascii">
      2
      4
      6
      8
     10
     12
     14
     16
     18
     20
     22
     24
     26
     28
     30
     32
     34
     36
     38
     40
     42
     44
     46
     48
     50
     52
     54
     56
     58
     60
     62
     64
     66
     68
     70
     72
     74
     76
     78
     80
     82
     84
     86
     88
     90
     92
     94
     96
     98
    100
        </DataArray>
      </Lines>
    </Piece>
  </PolyData>
</VTKFile>
