<?xml version="1.0"?>
<VTKFile type="PolyData" version="0.1" byte_order="LittleEndian">
  <PolyData>
    <Piece NumberOfPoints="      3" NumberOfVerts="  0" NumberOfLines="      2"
           NumberOfStrips="  0" NumberOfPolys="      0">
      <Points>
        <DataArray type="Float32" NumberOfComponents="3" format="ascii">
                      32.01979                      -0.11058                     147.87628
                      32.02015                      -0.11060                     147.88127
                      32.01943                      -0.11056                     147.87130
        </DataArray>
      </Points>
      <PointData>
        <DataArray type="Float32" Name="TranslationalVelocity" NumberOfComponents="3" format="ascii">
                       0.21567                      -0.07257                      -0.05103
                       0.21567                      -0.07257                      -0.05103
                       0.21566                      -0.07256                      -0.05103
        </DataArray>
        <DataArray type="Float32" Name="RotationalVelocity" NumberOfComponents="3" format="ascii">
                       0.00052                       0.00009                       0.00019
                       0.00052                       0.00009                       0.00019
                       0.00052                       0.00009                       0.00019
        </DataArray>
        <DataArray type="Float32" Name="TranslationalAcceleration" NumberOfComponents="3" format="ascii">
                      -0.01206                      -0.01605                      -0.00542
                      -0.01206                      -0.01605                      -0.00542
                      -0.01206                      -0.01605                      -0.00542
        </DataArray>
        <DataArray type="Float32" Name="RotationalAcceleration" NumberOfComponents="3" format="ascii">
                       0.00014                      -0.00055                       0.00009
                       0.00014                      -0.00055                       0.00009
                       0.00014                      -0.00055                       0.00009
        </DataArray>
        <DataArray type="Float32" Name="OrientationX" NumberOfComponents="3" format="ascii">
                       0.99733                       0.00652                      -0.07276
                       0.99733                       0.00652                      -0.07276
                       0.99733                       0.00652                      -0.07276
        </DataArray>
        <DataArray type="Float32" Name="OrientationY" NumberOfComponents="3" format="ascii">
                      -0.00623                       0.99997                       0.00414
                      -0.00623                       0.99997                       0.00414
                      -0.00623                       0.99997                       0.00414
        </DataArray>
        <DataArray type="Float32" Name="OrientationZ" NumberOfComponents="3" format="ascii">
                       0.07278                      -0.00367                       0.99734
                       0.07278                      -0.00367                       0.99734
                       0.07278                      -0.00367                       0.99734
        </DataArray>
      </PointData>
      <Lines>
        <DataArray type="Int32" Name="connectivity" format="ascii">
      0      1
      2      0
        </DataArray>
        <DataArray type="Int32" Name="offsets" format="ascii">
      2
      4
        </DataArray>
      </Lines>
    </Piece>
  </PolyData>
</VTKFile>
