<?xml version="1.0"?>
<VTKFile type="PolyData" version="0.1" byte_order="LittleEndian">
  <PolyData>
    <Piece NumberOfPoints="     50" NumberOfVerts="  0" NumberOfLines="     49"
           NumberOfStrips="  0" NumberOfPolys="      0">
      <Points>
        <DataArray type="Float32" NumberOfComponents="3" format="ascii">
                      25.89574                      -3.20667                     152.27098
                      26.03376                      -5.14597                     153.65959
                      26.16185                      -7.10518                     155.01934
                      26.26662                      -9.10354                     156.32250
                      26.35881                     -11.12868                     157.58654
                      26.44854                     -13.16879                     158.82812
                      26.54567                     -15.21076                     160.06592
                      26.66064                     -17.23602                     161.32675
                      26.79615                     -19.23659                     162.62237
                      26.93035                     -21.24187                     163.91058
                      27.06413                     -23.24783                     165.19743
                      27.20412                     -25.24634                     166.49467
                      27.36047                     -27.22723                     167.81668
                      27.53056                     -29.19836                     169.15185
                      27.70797                     -31.17328                     170.48028
                      27.89339                     -33.15217                     171.80150
                      28.08784                     -35.13397                     173.11697
                      28.29241                     -37.11862                     174.42651
                      28.50589                     -39.10492                     175.73211
                      28.72451                     -41.09221                     177.03541
                      28.94568                     -43.08035                     178.33728
                      29.16688                     -45.06967                     179.63789
                      29.39080                     -47.06088                     180.93595
                      29.62106                     -49.05445                     182.23016
                      29.86007                     -51.05020                     183.52038
                      30.11123                     -53.04816                     184.80582
                      30.37458                     -55.04841                     186.08637
                      30.64286                     -57.05132                     187.36348
                      30.91463                     -59.05636                     188.63879
                      31.19014                     -61.06402                     189.91190
                      31.47351                     -63.07414                     191.18220
                      31.76782                     -65.08655                     192.44926
                      32.07682                     -67.10075                     193.71274
                      32.40295                     -69.11636                     194.97236
                      32.74861                     -71.13303                     196.22768
                      33.10884                     -73.15097                     197.48012
                      33.48188                     -75.17030                     198.73026
                      33.86937                     -77.19056                     199.97817
                      34.27191                     -79.21144                     201.22399
                      34.69096                     -81.23242                     202.46766
                      35.12732                     -83.25359                     203.70826
                      35.58041                     -85.27495                     204.94558
                      36.04993                     -87.29631                     206.17940
                      36.53278                     -89.31755                     207.41091
                      37.02855                     -91.33820                     208.64029
                      37.53629                     -93.35785                     209.86775
                      38.05496                     -95.37622                     211.09314
                      38.58247                     -97.39325                     212.31635
                      39.11847                     -99.40798                     213.53746
                      39.67893                    -101.34441                     214.87544
        </DataArray>
      </Points>
      <PointData>
        <DataArray type="Float32" Name="TranslationalVelocity" NumberOfComponents="3" format="ascii">
                      -0.17226                      -1.53286                      -2.26433
                      -0.40895                      -2.52078                      -3.62050
                      -0.64837                      -3.48733                      -4.99060
                      -0.89318                      -4.41147                      -6.38806
                      -1.14169                      -5.30682                      -7.80438
                      -1.39227                      -6.18631                      -9.23144
                      -1.64313                      -7.06428                     -10.66020
                      -1.89171                      -7.96084                     -12.07776
                      -2.13689                      -8.88457                     -13.47859
                      -2.38269                      -9.80320                     -14.88310
                      -2.62853                     -10.72107                     -16.28851
                      -2.87328                     -11.64727                     -17.68915
                      -3.11553                     -12.59315                     -19.07798
                      -3.35635                     -13.55027                     -20.46048
                      -3.59758                     -14.50385                     -21.84607
                      -3.83923                     -15.45366                     -23.23490
                      -4.08116                     -16.40083                     -24.62620
                      -4.32334                     -17.34535                     -26.01995
                      -4.56562                     -18.28846                     -27.41527
                      -4.80788                     -19.23083                     -28.81168
                      -5.05011                     -20.17273                     -30.20904
                      -5.29236                     -21.11397                     -31.60756
                      -5.53472                     -22.05395                     -33.00775
                      -5.77728                     -22.99223                     -34.40995
                      -6.02001                     -23.92901                     -35.81408
                      -6.26296                     -24.86417                     -37.22016
                      -6.50613                     -25.79762                     -38.62825
                      -6.74959                     -26.72948                     -40.03858
                      -6.99326                     -27.66072                     -41.45075
                      -7.23724                     -28.59109                     -42.86513
                      -7.48153                     -29.52070                     -44.28165
                      -7.72614                     -30.44963                     -45.70022
                      -7.97101                     -31.37813                     -47.12053
                      -8.21615                     -32.30632                     -48.54236
                      -8.46151                     -33.23419                     -49.96547
                      -8.70715                     -34.16215                     -51.39001
                      -8.95309                     -35.09037                     -52.81605
                      -9.19930                     -36.01913                     -54.24329
                      -9.44575                     -36.94860                     -55.67152
                      -9.69240                     -37.87894                     -57.10040
                      -9.93928                     -38.80960                     -58.52999
                     -10.18641                     -39.74035                     -59.96026
                     -10.43378                     -40.67099                     -61.39110
                     -10.68137                     -41.60197                     -62.82233
                     -10.92913                     -42.53334                     -64.25360
                     -11.17701                     -43.46510                     -65.68456
                     -11.42496                     -44.39697                     -67.11495
                     -11.67296                     -45.32857                     -68.54462
                     -11.92089                     -46.25985                     -69.97278
                     -12.15818                     -47.27684                     -71.34576
        </DataArray>
        <DataArray type="Float32" Name="RotationalVelocity" NumberOfComponents="3" format="ascii">
                       0.69881                       0.00696                      -0.12703
                       0.69884                       0.00696                      -0.12703
                       0.69890                       0.00696                      -0.12704
                       0.69900                       0.00696                      -0.12705
                       0.69912                       0.00696                      -0.12706
                       0.69927                       0.00696                      -0.12707
                       0.69944                       0.00696                      -0.12707
                       0.69963                       0.00697                      -0.12707
                       0.69982                       0.00698                      -0.12707
                       0.70002                       0.00700                      -0.12706
                       0.70022                       0.00702                      -0.12704
                       0.70043                       0.00704                      -0.12702
                       0.70063                       0.00707                      -0.12699
                       0.70083                       0.00710                      -0.12695
                       0.70103                       0.00714                      -0.12691
                       0.70122                       0.00718                      -0.12687
                       0.70140                       0.00721                      -0.12683
                       0.70158                       0.00725                      -0.12678
                       0.70176                       0.00730                      -0.12673
                       0.70193                       0.00734                      -0.12668
                       0.70209                       0.00738                      -0.12663
                       0.70225                       0.00742                      -0.12659
                       0.70240                       0.00745                      -0.12654
                       0.70256                       0.00749                      -0.12650
                       0.70271                       0.00752                      -0.12646
                       0.70286                       0.00755                      -0.12643
                       0.70301                       0.00757                      -0.12640
                       0.70317                       0.00759                      -0.12638
                       0.70333                       0.00761                      -0.12637
                       0.70349                       0.00762                      -0.12636
                       0.70365                       0.00763                      -0.12636
                       0.70382                       0.00763                      -0.12637
                       0.70400                       0.00763                      -0.12638
                       0.70418                       0.00762                      -0.12641
                       0.70437                       0.00761                      -0.12644
                       0.70456                       0.00759                      -0.12648
                       0.70476                       0.00757                      -0.12652
                       0.70496                       0.00755                      -0.12657
                       0.70516                       0.00752                      -0.12663
                       0.70536                       0.00748                      -0.12669
                       0.70556                       0.00745                      -0.12676
                       0.70575                       0.00741                      -0.12683
                       0.70594                       0.00736                      -0.12691
                       0.70611                       0.00732                      -0.12699
                       0.70627                       0.00727                      -0.12706
                       0.70640                       0.00723                      -0.12714
                       0.70650                       0.00718                      -0.12722
                       0.70656                       0.00714                      -0.12729
                       0.70658                       0.00710                      -0.12735
                       0.70657                       0.00706                      -0.12740
        </DataArray>
        <DataArray type="Float32" Name="TranslationalAcceleration" NumberOfComponents="3" format="ascii">
                      -0.30963                       1.62715                      -1.10626
                      -0.44619                       2.60244                      -1.79830
                      -0.58013                       3.58799                      -2.47538
                      -0.70886                       4.59368                      -3.12278
                      -0.83407                       5.61340                      -3.74994
                      -0.95734                       6.64130                      -4.36584
                      -1.08043                       7.67085                      -4.98044
                      -1.20584                       8.69271                      -5.60781
                      -1.33464                       9.70290                      -6.25394
                      -1.46288                      10.71628                      -6.89626
                      -1.59111                      11.73083                      -7.53781
                      -1.72048                      12.74245                      -8.18494
                      -1.85239                      13.74601                      -8.84563
                      -1.98582                      14.74548                      -9.51398
                      -2.11896                      15.74770                     -10.17962
                      -2.25181                      16.75275                     -10.84239
                      -2.38450                      17.76006                     -11.50308
                      -2.51704                      18.76958                     -12.16169
                      -2.64959                      19.78068                     -12.81909
                      -2.78223                      20.79298                     -13.47576
                      -2.91499                      21.80638                     -14.13188
                      -3.04784                      22.82103                     -14.78734
                      -3.18070                      23.83727                     -15.44171
                      -3.31352                      24.85536                     -16.09468
                      -3.44631                      25.87523                     -16.74638
                      -3.57904                      26.89688                     -17.39671
                      -3.71168                      27.92036                     -18.04563
                      -3.84423                      28.94587                     -18.69321
                      -3.97681                      29.97313                     -19.34012
                      -4.10937                      31.00243                     -19.98619
                      -4.24190                      32.03371                     -20.63149
                      -4.37438                      33.06696                     -21.27605
                      -4.50683                      34.10193                     -21.92005
                      -4.63923                      35.13850                     -22.56356
                      -4.77156                      36.17652                     -23.20656
                      -4.90386                      37.21612                     -23.84934
                      -5.03613                      38.25737                     -24.49203
                      -5.16838                      39.30009                     -25.13480
                      -5.30062                      40.34414                     -25.77780
                      -5.43284                      41.38928                     -26.42111
                      -5.56496                      42.43554                     -27.06437
                      -5.69694                      43.48291                     -27.70743
                      -5.82873                      44.53127                     -28.35016
                      -5.96039                      45.58050                     -28.99289
                      -6.09191                      46.63028                     -29.63570
                      -6.22328                      47.68031                     -30.27862
                      -6.35446                      48.73031                     -30.92149
                      -6.48542                      49.78007                     -31.56412
                      -6.61616                      50.82890                     -32.20654
                      -6.75730                      51.83811                     -32.91011
        </DataArray>
        <DataArray type="Float32" Name="OrientationX" NumberOfComponents="3" format="ascii">
                       0.91120                      -0.18756                      -0.36679
                       0.91130                      -0.18835                      -0.36613
                       0.91274                      -0.18960                      -0.36189
                       0.91615                      -0.18833                      -0.35385
                       0.92091                      -0.18249                      -0.34442
                       0.92653                      -0.17279                      -0.33419
                       0.93254                      -0.15996                      -0.32371
                       0.93849                      -0.14555                      -0.31312
                       0.94426                      -0.13341                      -0.30096
                       0.94959                      -0.12420                      -0.28785
                       0.95401                      -0.11534                      -0.27670
                       0.95741                      -0.10570                      -0.26868
                       0.96020                      -0.09558                      -0.26246
                       0.96288                      -0.08603                      -0.25585
                       0.96536                      -0.07705                      -0.24928
                       0.96757                      -0.06809                      -0.24326
                       0.96947                      -0.05918                      -0.23795
                       0.97109                      -0.05083                      -0.23326
                       0.97252                      -0.04393                      -0.22862
                       0.97385                      -0.03867                      -0.22388
                       0.97511                      -0.03466                      -0.21901
                       0.97623                      -0.03084                      -0.21452
                       0.97712                      -0.02608                      -0.21108
                       0.97778                      -0.02044                      -0.20862
                       0.97823                      -0.01393                      -0.20706
                       0.97851                      -0.00691                      -0.20610
                       0.97887                      -0.00136                      -0.20447
                       0.97937                       0.00236                      -0.20204
                       0.97984                       0.00564                      -0.19968
                       0.98016                       0.00953                      -0.19800
                       0.98025                       0.01460                      -0.19721
                       0.98015                       0.02081                      -0.19718
                       0.97984                       0.02810                      -0.19777
                       0.97939                       0.03632                      -0.19869
                       0.97901                       0.04422                      -0.19895
                       0.97890                       0.05121                      -0.19783
                       0.97886                       0.05853                      -0.19598
                       0.97871                       0.06619                      -0.19430
                       0.97839                       0.07399                      -0.19306
                       0.97786                       0.08177                      -0.19265
                       0.97713                       0.08902                      -0.19311
                       0.97614                       0.09494                      -0.19527
                       0.97513                       0.09959                      -0.19798
                       0.97418                       0.10328                      -0.20075
                       0.97320                       0.10643                      -0.20383
                       0.97221                       0.10898                      -0.20718
                       0.97125                       0.11070                      -0.21078
                       0.97023                       0.11162                      -0.21491
                       0.96935                       0.11118                      -0.21908
                       0.96824                       0.11066                      -0.22420
        </DataArray>
        <DataArray type="Float32" Name="OrientationY" NumberOfComponents="3" format="ascii">
                       0.40849                       0.52670                       0.74546
                       0.40840                       0.52646                       0.74568
                       0.40564                       0.52607                       0.74746
                       0.39833                       0.52644                       0.75113
                       0.38729                       0.52805                       0.75576
                       0.37341                       0.53055                       0.76097
                       0.35758                       0.53358                       0.76644
                       0.34078                       0.53662                       0.77195
                       0.32397                       0.53886                       0.77761
                       0.30804                       0.54031                       0.78306
                       0.29392                       0.54149                       0.78766
                       0.28196                       0.54257                       0.79128
                       0.27123                       0.54353                       0.79436
                       0.26052                       0.54428                       0.79742
                       0.25016                       0.54485                       0.80035
                       0.24028                       0.54531                       0.80306
                       0.23102                       0.54566                       0.80553
                       0.22260                       0.54588                       0.80776
                       0.21502                       0.54592                       0.80978
                       0.20826                       0.54581                       0.81162
                       0.20207                       0.54561                       0.81331
                       0.19629                       0.54540                       0.81487
                       0.19088                       0.54522                       0.81627
                       0.18583                       0.54507                       0.81754
                       0.18106                       0.54492                       0.81871
                       0.17652                       0.54475                       0.81981
                       0.17222                       0.54453                       0.82087
                       0.16824                       0.54425                       0.82188
                       0.16455                       0.54397                       0.82281
                       0.16110                       0.54369                       0.82368
                       0.15778                       0.54342                       0.82450
                       0.15450                       0.54314                       0.82530
                       0.15118                       0.54285                       0.82611
                       0.14765                       0.54251                       0.82697
                       0.14375                       0.54214                       0.82790
                       0.13919                       0.54171                       0.82896
                       0.13385                       0.54122                       0.83016
                       0.12848                       0.54069                       0.83135
                       0.12342                       0.54014                       0.83247
                       0.11908                       0.53962                       0.83345
                       0.11575                       0.53915                       0.83422
                       0.11454                       0.53887                       0.83457
                       0.11444                       0.53873                       0.83467
                       0.11488                       0.53868                       0.83464
                       0.11586                       0.53870                       0.83449
                       0.11738                       0.53881                       0.83421
                       0.11951                       0.53902                       0.83377
                       0.12248                       0.53936                       0.83312
                       0.12618                       0.53984                       0.83226
                       0.13070                       0.54042                       0.83118
        </DataArray>
        <DataArray type="Float32" Name="OrientationZ" NumberOfComponents="3" format="ascii">
                       0.05337                      -0.82910                       0.55655
                       0.05230                      -0.82907                       0.55669
                       0.04866                      -0.82903                       0.55708
                       0.04482                      -0.82909                       0.55731
                       0.04395                      -0.82937                       0.55696
                       0.04582                      -0.82986                       0.55609
                       0.05012                      -0.83049                       0.55478
                       0.05567                      -0.83118                       0.55321
                       0.05844                      -0.83177                       0.55204
                       0.05827                      -0.83225                       0.55133
                       0.05898                      -0.83276                       0.55049
                       0.06214                      -0.83334                       0.54926
                       0.06673                      -0.83393                       0.54782
                       0.07065                      -0.83448                       0.54649
                       0.07415                      -0.83498                       0.54525
                       0.07797                      -0.83546                       0.54399
                       0.08217                      -0.83591                       0.54268