<?xml version="1.0"?>
<VTKFile type="PolyData" version="0.1" byte_order="LittleEndian">
  <PolyData>
    <Piece NumberOfPoints="      3" NumberOfVerts="  0" NumberOfLines="      2"
           NumberOfStrips="  0" NumberOfPolys="      0">
      <Points>
        <DataArray type="Float32" NumberOfComponents="3" format="ascii">
                      30.89196                      -0.86113                     147.99951
                      30.89225                      -0.86117                     148.00450
                      30.89166                      -0.86108                     147.99452
        </DataArray>
      </Points>
      <PointData>
        <DataArray type="Float32" Name="TranslationalVelocity" NumberOfComponents="3" format="ascii">
                       0.08674                      -0.02299                      -0.04500
                       0.08672                      -0.02299                      -0.04499
                       0.08675                      -0.02299                      -0.04500
        </DataArray>
        <DataArray type="Float32" Name="RotationalVelocity" NumberOfComponents="3" format="ascii">
                       0.00021                      -0.00246                       0.00038
                       0.00021                      -0.00246                       0.00038
                       0.00021                      -0.00246                       0.00038
        </DataArray>
        <DataArray type="Float32" Name="TranslationalAcceleration" NumberOfComponents="3" format="ascii">
                       0.10306                       0.02374                      -0.01367
                       0.10306                       0.02374                      -0.01367
                       0.10306                       0.02374                      -0.01367
        </DataArray>
        <DataArray type="Float32" Name="RotationalAcceleration" NumberOfComponents="3" format="ascii">
                      -0.00006                       0.00041                       0.00043
                      -0.00006                       0.00041                       0.00043
                      -0.00006                       0.00041                       0.00043
        </DataArray>
        <DataArray type="Float32" Name="OrientationX" NumberOfComponents="3" format="ascii">
                       0.99822                       0.00716                      -0.05919
                       0.99822                       0.00716                      -0.05919
                       0.99822                       0.00716                      -0.05919
        </DataArray>
        <DataArray type="Float32" Name="OrientationY" NumberOfComponents="3" format="ascii">
                      -0.00663                       0.99994                       0.00914
                      -0.00663                       0.99994                       0.00914
                      -0.00663                       0.99994                       0.00914
        </DataArray>
        <DataArray type="Float32" Name="OrientationZ" NumberOfComponents="3" format="ascii">
                       0.05925                      -0.00873                       0.99821
                       0.05925                      -0.00873                       0.99821
                       0.05925                      -0.00873                       0.99821
        </DataArray>
      </PointData>
      <Lines>
        <DataArray type="Int32" Name="connectivity" format="ascii">
      0      1
      2      0
        </DataArray>
        <DataArray type="Int32" Name="offsets" format="ascii">
      2
      4
        </DataArray>
      </Lines>
    </Piece>
  </PolyData>
</VTKFile>
