<?xml version="1.0"?>
<VTKFile type="PolyData" version="0.1" byte_order="LittleEndian">
  <PolyData>
    <Piece NumberOfPoints="     50" NumberOfVerts="  0" NumberOfLines="     49"
           NumberOfStrips="  0" NumberOfPolys="      0">
      <Points>
        <DataArray type="Float32" NumberOfComponents="3" format="ascii">
                      24.10621                       3.00330                     148.43667
                      23.80963                       5.21350                     147.57923
                      23.51392                       7.43568                     146.75570
                      23.21631                       9.68129                     145.99996
                      22.92063                      11.94289                     145.28918
                      22.63042                      14.21337                     144.60171
                      22.34820                      16.48477                     143.91393
                      22.07420                      18.74563                     143.19336
                      21.80670                      20.99085                     142.42646
                      21.54009                      23.23822                     141.66584
                      21.27297                      25.48522                     140.90470
                      21.00736                      27.72688                     140.12826
                      20.74764                      29.95705                     139.31767
                      20.49541                      32.18057                     138.48628
                      20.25168                      34.40589                     137.65757
                      20.01721                      36.63319                     136.83184
                      19.79244                      38.86181                     136.00722
                      19.57843                      41.09177                     135.18356
                      19.37337                      43.32229                     134.35925
                      19.17312                      45.55290                     133.53395
                      18.97500                      47.78350                     132.70775
                      18.77662                      50.01436                     131.88144
                      18.58098                      52.24603                     131.05552
                      18.39198                      54.47893                     130.23003
                      18.21199                      56.71301                     129.40428
                      18.04453                      58.94835                     128.57783
                      17.88973                      61.18500                     127.75076
                      17.74033                      63.42321                     126.92421
                      17.59448                      65.66271                     126.09699
                      17.45262                      67.90390                     125.26943
                      17.31890                      70.14673                     124.44057
                      17.19643                      72.39110                     123.60965
                      17.08889                      74.63665                     122.77550
                      16.99876                      76.88306                     121.93738
                      16.92850                      79.13000                     121.09473
                      16.87303                      81.37767                     120.24784
                      16.83057                      83.62616                     119.39672
                      16.80270                      85.87510                     118.54060
                      16.78997                      88.12422                     117.67900
                      16.79384                      90.37306                     116.81135
                      16.81542                      92.62154                     115.93822
                      16.85430                      94.86957                     115.06003
                      16.91034                      97.11695                     114.17712
                      16.98027                      99.36362                     113.28950
                      17.06369                     101.60918                     112.39725
                      17.15970                     103.85330                     111.50063
                      17.26741                     106.09569                     110.60040
                      17.38493                     108.33629                     109.69772
                      17.51193                     110.57428                     108.79293
                      17.62123                     112.75943                     107.75660
        </DataArray>
      </Points>
      <PointData>
        <DataArray type="Float32" Name="TranslationalVelocity" NumberOfComponents="3" format="ascii">
                       0.26299                       0.91674                       2.70295
                       0.55171                       1.58797                       4.33332
                       0.84214                       2.23408                       5.97245
                       1.13596                       2.83042                       7.62875
                       1.43212                       3.39333                       9.29665
                       1.72959                       3.93829                      10.97088
                       2.02724                       4.48237                      12.64552
                       2.32342                       5.04946                      14.31210
                       2.61742                       5.64973                      15.96687
                       2.91179                       6.24519                      17.62294
                       3.20619                       6.84100                      19.27845
                       3.49990                       7.44781                      20.92975
                       3.79203                       8.07887                      22.57227
                       4.08329                       8.72416                      24.20960
                       4.37490                       9.36624                      25.84795
                       4.66687                      10.00482                      27.48744
                       4.95914                      10.64120                      29.12761
                       5.25171                      11.27536                      30.76846
                       5.54449                      11.90874                      32.40944
                       5.83742                      12.54212                      34.05023
                       6.13052                      13.17579                      35.69076
                       6.42383                      13.80951                      37.33123
                       6.71747                      14.44251                      38.97205
                       7.01150                      15.07424                      40.61349
                       7.30594                      15.70490                      42.25552
                       7.60083                      16.33434                      43.89818
                       7.89619                      16.96248                      45.54148
                       8.19211                      17.58946                      47.18564
                       8.48857                      18.21639                      48.83043
                       8.78565                      18.84297                      50.47615
                       9.08338                      19.46936                      52.12271
                       9.38178                      20.09568                      53.77003
                       9.68083                      20.72231                      55.41779
                       9.98050                      21.34943                      57.06575
                      10.28080                      21.97714                      58.71363
                      10.58178                      22.60586                      60.36158
                      10.88347                      23.23583                      62.00966
                      11.18585                      23.86741                      63.65756
                      11.48891                      24.50083                      65.30509
                      11.79260                      25.13632                      66.95188
                      12.09693                      25.77329                      68.59788
                      12.40190                      26.41147                      70.24302
                      12.70748                      27.05064                      71.88718
                      13.01367                      27.69120                      73.53033
                      13.32041                      28.33317                      75.17223
                      13.62763                      28.97646                      76.81267
                      13.93527                      29.62065                      78.45152
                      14.24328                      30.26514                      80.08879
                      14.55152                      30.90973                      81.72399
                      14.85280                      31.65284                      83.32051
        </DataArray>
        <DataArray type="Float32" Name="RotationalVelocity" NumberOfComponents="3" format="ascii">
                       0.73710                       0.00416                      -0.13225
                       0.73708                       0.00416                      -0.13224
                       0.73704                       0.00416                      -0.13224
                       0.73698                       0.00415                      -0.13225
                       0.73691                       0.00413                      -0.13226
                       0.73681                       0.00411                      -0.13228
                       0.73671                       0.00409                      -0.13230
                       0.73660                       0.00407                      -0.13232
                       0.73648                       0.00404                      -0.13234
                       0.73636                       0.00402                      -0.13237
                       0.73624                       0.00399                      -0.13239
                       0.73611                       0.00396                      -0.13242
                       0.73599                       0.00394                      -0.13244
                       0.73587                       0.00391                      -0.13247
                       0.73575                       0.00388                      -0.13251
                       0.73563                       0.00385                      -0.13254
                       0.73552                       0.00382                      -0.13258
                       0.73541                       0.00379                      -0.13263
                       0.73530                       0.00375                      -0.13268
                       0.73519                       0.00372                      -0.13274
                       0.73509                       0.00368                      -0.13280
                       0.73498                       0.00364                      -0.13287
                       0.73488                       0.00360                      -0.13295
                       0.73477                       0.00355                      -0.13304
                       0.73467                       0.00350                      -0.13314
                       0.73456                       0.00344                      -0.13326
                       0.73444                       0.00338                      -0.13338
                       0.73433                       0.00332                      -0.13351
                       0.73420                       0.00325                      -0.13366
                       0.73407                       0.00318                      -0.13381
                       0.73394                       0.00310                      -0.13398
                       0.73380                       0.00302                      -0.13416
                       0.73365                       0.00293                      -0.13435
                       0.73349                       0.00284                      -0.13455
                       0.73333                       0.00274                      -0.13476
                       0.73315                       0.00264                      -0.13498
                       0.73298                       0.00253                      -0.13521
                       0.73279                       0.00242                      -0.13544
                       0.73261                       0.00231                      -0.13569
                       0.73242                       0.00220                      -0.13593
                       0.73222                       0.00208                      -0.13618
                       0.73204                       0.00197                      -0.13643
                       0.73185                       0.00185                      -0.13668
                       0.73168                       0.00174                      -0.13692
                       0.73152                       0.00163                      -0.13717
                       0.73138                       0.00153                      -0.13740
                       0.73126                       0.00143                      -0.13763
                       0.73116                       0.00135                      -0.13784
                       0.73111                       0.00127                      -0.13803
                       0.73108                       0.00120                      -0.13821
        </DataArray>
        <DataArray type="Float32" Name="TranslationalAcceleration" NumberOfComponents="3" format="ascii">
                       0.16233                      -2.06129                       0.78095
                       0.25941                      -3.29740                       1.28383
                       0.35324                      -4.54023                       1.76833
                       0.44065                      -5.79627                       2.21645
                       0.52380                      -7.06114                       2.64031
                       0.60471                      -8.33069                       3.05136
                       0.68566                      -9.60026                       3.46223
                       0.76978                     -10.86321                       3.89049
                       0.85841                     -12.11656                       4.34362
                       0.94666                     -13.37054                       4.79373
                       1.03522                     -14.62370                       5.24461
                       1.12551                     -15.87315                       5.70405
                       1.21926                     -17.11530                       6.18178
                       1.31519                     -18.35295                       6.67039
                       1.41106                     -19.59100                       7.15711
                       1.50684                     -20.82956                       7.64169
                       1.60270                     -22.06828                       8.12507
                       1.69866                     -23.30719                       8.60722
                       1.79489                     -24.54587                       9.08918
                       1.89151                     -25.78407                       9.57150
                       1.98854                     -27.02175                      10.05439
                       2.08594                     -28.25908                      10.53765
                       2.18362                     -29.49637                      11.02072
                       2.28148                     -30.73388                      11.50319
                       2.37955                     -31.97158                      11.98520
                       2.47778                     -33.20952                      12.46664
                       2.57614                     -34.44772                      12.94746
                       2.67466                     -35.68632                      13.42777
                       2.77344                     -36.92514                      13.90839
                       2.87244                     -38.16439                      14.38913
                       2.97166                     -39.40402                      14.87012
                       3.07108                     -40.64396                      15.35145
                       3.17074                     -41.88397                      15.83342
                       3.27064                     -43.12386                      16.31617
                       3.37075                     -44.36343                      16.79980
                       3.47113                     -45.60274                      17.28463
                       3.57178                     -46.84184                      17.77085
                       3.67273                     -48.08047                      18.25872
                       3.77397                     -49.31847                      18.74843
                       3.87553                     -50.55557                      19.24013
                       3.97729                     -51.79175                      19.73338
                       4.07919                     -53.02696                      20.22798
                       4.18119                     -54.26111                      20.72372
                       4.28330                     -55.49422                      21.22088
                       4.38551                     -56.72612                      21.71942
                       4.48778                     -57.95670                      22.21920
                       4.59002                     -59.18592                      22.71983
                       4.69212                     -60.41387                      23.22079
                       4.79404                     -61.64028                      23.72180
                       4.90904                     -62.83552                      24.29401
        </DataArray>
        <DataArray type="Float32" Name="OrientationX" NumberOfComponents="3" format="ascii">
                       0.98574                       0.15161                       0.07303
                       0.98562                       0.15258                       0.07256
                       0.98555                       0.15492                       0.06849
                       0.98598                       0.15581                       0.05967
                       0.98711                       0.15269                       0.04807
                       0.98867                       0.14605                       0.03453
                       0.99044                       0.13647                       0.01991
                       0.99210                       0.12538                       0.00484
                       0.99309                       0.11685                      -0.01107
                       0.99341                       0.11136                      -0.02703
                       0.99356                       0.10573                      -0.04082
                       0.99379                       0.09857                      -0.05158
                       0.99405                       0.09052                      -0.06060
                       0.99409                       0.08311                      -0.06981
                       0.99397                       0.07621                      -0.07878
                       0.99379                       0.06921                      -0.08715
                       0.99356                       0.06206                      -0.09476
                       0.99329                       0.05529                      -0.10157
                       0.99290                       0.04991                      -0.10794
                       0.99241                       0.04613                      -0.11400
                       0.99183                       0.04355                      -0.11987
                       0.99127                       0.04106                      -0.12531
                       0.99082                       0.03739                      -0.12992
                       0.99048                       0.03262                      -0.13373
                       0.99023                       0.02676                      -0.13683
                       0.99003                       0.02024                      -0.13943
                       0.98970                       0.01527                      -0.14234
                       0.98927                       0.01222                      -0.14561
                       0.98884                       0.00955                      -0.14871
                       0.98848                       0.00610                      -0.15125
                       0.98820                       0.00126                      -0.15315
                       0.98798                      -0.00490                      -0.15452
                       0.98777                      -0.01229                      -0.15546
                       0.98750                      -0.02070                      -0.15624
                       0.98709                      -0.02870                      -0.15756
                       0.98647                      -0.03554                      -0.16003
                       0.98567                      -0.04258                      -0.16324
                       0.98480                      -0.05004                      -0.16633
                       0.98393                      -0.05775                      -0.16896
                       0.98313                      -0.06564                      -0.17073
                       0.98245                      -0.07323                      -0.17152
                       0.98214                      -0.07988                      -0.17038
                       0.98200                      -0.08541                      -0.16845
                       0.98196                      -0.09001                      -0.16628
                       0.98201                      -0.09415                      -0.16370
                       0.98214                      -0.09774                      -0.16075
                       0.98240                      -0.10056                      -0.15741
                       0.98281                      -0.10268                      -0.15341
                       0.98339                      -0.10344                      -0.14914
                       0.98408                      -0.10430                      -0.14391
        </DataArray>
        <DataArray type="Float32" Name="OrientationY" NumberOfComponents="3" format="ascii">
                       0.11851                      -0.31734                      -0.94088
                       0.11838                      -0.31719                      -0.94094
                       0.11522                      -0.31683                      -0.94146
                       0.10715                      -0.31720                      -0.94229
                       0.09525                      -0.31890                      -0.94299
                       0.08046                      -0.32160                      -0.94345
                       0.06374                      -0.32494                      -0.94358
                       0.04611                      -0.32840                      -0.94341
                       0.02844                      -0.33110                      -0.94317
                       0.01168                      -0.33305                      -0.94284
                      -0.00308                      -0.33484                      -0.94227
                      -0.01548                      -0.33662                      -0.94151
                      -0.02654                      -0.33833                      -0.94065
                      -0.03758                      -0.33983                      -0.93974
                      -0.04825                      -0.34115                      -0.93877
                      -0.05840                      -0.34235                      -0.93775
                      -0.06788                      -0.34345                      -0.93671
                      -0.07651                      -0.34440                      -0.93570
                      -0.08427                      -0.34514                      -0.93476
                      -0.09121                      -0.34572                      -0.93390
                      -0.09757                      -0.34619                      -0.93308
                      -0.10350                      -0.34664                      -0.93227
                      -0.10903                      -0.34713                      -0.93146
                      -0.11421                      -0.34764                      -0.93065
                      -0.11908                      -0.34816                      -0.92984
                      -0.12371                      -0.34867                      -0.92905
                      -0.12812                      -0.34912                      -0.92828
                      -0.13221                      -0.34952                      -0.92755
                      -0.13601                      -0.34994                      -0.92685
                      -0.13956                      -0.35039                      -0.92615
                      -0.14298                      -0.35087                      -0.92544
                      -0.14637                      -0.35137                      -0.92472
                      -0.14980                      -0.35188                      -0.92398
                      -0.15346                      -0.35238                      -0.92319
                      -0.15749                      -0.35287                      -0.92232
                      -0.16219                      -0.35335                      -0.92133
                      -0.16768                      -0.35379                      -0.92017
                      -0.17321                      -0.35422                      -0.91898
                      -0.17842                      -0.35463                      -0.91782
                      -0.18292                      -0.35505                      -0.91678
                      -0.18640                      -0.35550                      -0.91590
                      -0.18776                      -0.35607                      -0.91540
                      -0.18800                      -0.35672                      -0.91510
                      -0.18769                      -0.35740                      -0.91490
                      -0.18683                      -0.35807                      -0.91481
                      -0.18543                      -0.35872                      -0.91484
                      -0.18339                      -0.35934                      -0.91501
                      -0.18048                      -0.35993                      -0.91535
                      -0.17681                      -0.36048                      -0.91586
                      -0.17229                      -0.36097                      -0.91652
        </DataArray>
        <DataArray type="Float32" Name="OrientationZ" NumberOfComponents="3" format="ascii">
                      -0.11947                       0.93612                      -0.33078
                      -0.12055                       0.93601                      -0.33069
                      -0.12415                       0.93574                      -0.33010
                      -0.12789                       0.93547                      -0.32945
                      -0.12865                       0.93541                      -0.32933
                      -0.12668                       0.93555                      -0.32971
                      -0.12230                       0.93584                      -0.33053
                      -0.11669                       0.93618                      -0.33159
                      -0.11387                       0.93633                      -0.33214
                      -0.11400                       0.93631                      -0.33216
                      -0.11329                       0.93633                      -0.33235
                      -0.11017                       0.93647                      -0.33300
                      -0.10565                       0.93666                      -0.33391
                      -0.10182                       0.93681                      -0.33470
                      -0.09842                       0.93692                      -0.33541
                      -0.09473                       0.93702                      -0.33619
                      -0.09067                       0.93712                      -0.33703