<?xml version="1.0"?>
<VTKFile type="PolyData" version="0.1" byte_order="LittleEndian">
  <PolyData>
    <Piece NumberOfPoints="     50" NumberOfVerts="  0" NumberOfLines="     49"
           NumberOfStrips="  0" NumberOfPolys="      0">
      <Points>
        <DataArray type="Float32" NumberOfComponents="3" format="ascii">
                      14.54926                       2.51459                     148.01800
                      14.16611                       4.45170                     146.67303
                      13.78264                       6.40830                     145.35834
                      13.39481                       8.40313                     144.10425
                      13.00710                      10.42390                     142.89030
                      12.62368                      12.45891                     141.69710
                      12.24780                      14.49511                     140.50352
                      11.88073                      16.51393                     139.28059
                      11.52122                      18.50724                     138.01633
                      11.16177                      20.50409                     136.75780
                      10.80119                      22.50040                     135.49898
                      10.44195                      24.48807                     134.22663
                      10.08902                      26.45700                     132.92387
                       9.74349                      28.41507                     131.60260
                       9.40549                      30.37592                     130.28374
                       9.07572                      32.33981                     128.96754
                       8.75465                      34.30573                     127.65236
                       8.44330                      36.27372                     126.33804
                       8.13987                      38.24254                     125.02319
                       7.84023                      40.21146                     123.70758
                       7.54164                      42.18026                     122.39132
                       7.24163                      44.14922                     121.07512
                       6.94312                      46.11918                     119.75936
                       6.64991                      48.09074                     118.44403
                       6.36432                      50.06384                     117.12847
                       6.08983                      52.03865                     115.81226
                       5.82647                      54.01527                     114.49550
                       5.56689                      55.99377                     113.17922
                       5.30921                      57.97353                     111.86235
                       5.05376                      59.95503                     110.54513
                       4.80462                      61.93823                     109.22668
                       4.56485                      63.92306                     107.90631
                       4.33808                      65.90912                     106.58297
                       4.12672                      67.89613                     105.25604
                       3.93320                      69.88379                     103.92503
                       3.75237                      71.87209                     102.59022
                       3.58237                      73.86104                     101.25158
                       3.42476                      75.85022                      99.90847
                       3.28009                      77.83934                      98.56048
                       3.14979                      79.82794                      97.20716
                       3.03497                      81.81618                      95.84906
                       2.93521                      83.80410                      94.48660
                       2.85039                      85.79159                      93.12011
                       2.77731                      87.77842                      91.74961
                       2.71563                      89.76424                      90.37519
                       2.66457                      91.74872                      88.99716
                       2.62338                      93.73176                      87.61624
                       2.59032                      95.71342                      86.23350
                       2.56530                      97.69300                      84.84939
                       2.52621                      99.59061                      83.34919
        </DataArray>
      </Points>
      <PointData>
        <DataArray type="Float32" Name="TranslationalVelocity" NumberOfComponents="3" format="ascii">
                       0.28961                       1.71323                       2.39168
                       0.54661                       2.75706                       3.82186
                       0.80631                       3.77853                       5.26633
                       1.07137                       4.75579                       6.73886
                       1.34006                       5.70328                       8.23027
                       1.61077                       6.63473                       9.73186
                       1.88166                       7.56528                      11.23396
                       2.15014                       8.51606                      12.72286
                       2.41509                       9.49606                      14.19253
                       2.68055                      10.47160                      15.66442
                       2.94596                      11.44725                      17.13550
                       3.21017                      12.43243                      18.59981
                       3.47178                      13.43889                      20.04991
                       3.73189                      14.45771                      21.49161
                       3.99240                      15.47348                      22.93496
                       4.25335                      16.48593                      24.38016
                       4.51460                      17.49622                      25.82646
                       4.77617                      18.50433                      27.27390
                       5.03790                      19.51154                      28.72160
                       5.29971                      20.51857                      30.16903
                       5.56159                      21.52573                      31.61603
                       5.82360                      22.53283                      33.06284
                       6.08588                      23.53921                      34.51005
                       6.34854                      24.54437                      35.95809
                       6.61161                      25.54848                      37.40692
                       6.87512                      26.55137                      38.85664
                       7.13914                      27.55299                      40.30730
                       7.40371                      28.55355                      41.75897
                       7.66878                      29.55410                      43.21117
                       7.93446                      30.55440                      44.66424
                       8.20078                      31.55456                      46.11810
                       8.46777                      32.55465                      47.57268
                       8.73542                      33.55494                      49.02766
                       9.00372                      34.55554                      50.48280
                       9.27269                      35.55646                      51.93785
                       9.54235                      36.55820                      53.39279
                       9.81274                      37.56099                      54.84761
                      10.08384                      38.56509                      56.30198
                      10.35564                      39.57070                      57.75566
                      10.62810                      40.57795                      59.20831
                      10.90127                      41.58625                      60.66007
                      11.17517                      42.59537                      62.11094
                      11.44979                      43.60507                      63.56088
                      11.72512                      44.61577                      65.00976
                      12.00109                      45.62746                      66.45735
                      12.27766                      46.64006                      67.90350
                      12.55479                      47.65315                      69.34819
                      12.83245                      48.66623                      70.79159
                      13.11049                      49.67905                      72.23331
                      13.37789                      50.77836                      73.61521
        </DataArray>
        <DataArray type="Float32" Name="RotationalVelocity" NumberOfComponents="3" format="ascii">
                       0.73769                       0.00317                      -0.13488
                       0.73766                       0.00317                      -0.13487
                       0.73759                       0.00317                      -0.13486
                       0.73749                       0.00315                      -0.13485
                       0.73737                       0.00312                      -0.13485
                       0.73722                       0.00310                      -0.13485
                       0.73705                       0.00306                      -0.13484
                       0.73687                       0.00303                      -0.13484
                       0.73668                       0.00300                      -0.13483
                       0.73649                       0.00296                      -0.13482
                       0.73629                       0.00293                      -0.13480
                       0.73610                       0.00290                      -0.13479
                       0.73590                       0.00287                      -0.13478
                       0.73571                       0.00283                      -0.13476
                       0.73552                       0.00280                      -0.13475
                       0.73534                       0.00277                      -0.13474
                       0.73517                       0.00274                      -0.13473
                       0.73499                       0.00270                      -0.13473
                       0.73483                       0.00267                      -0.13474
                       0.73467                       0.00263                      -0.13475
                       0.73451                       0.00258                      -0.13477
                       0.73435                       0.00253                      -0.13480
                       0.73420                       0.00247                      -0.13483
                       0.73404                       0.00241                      -0.13488
                       0.73389                       0.00234                      -0.13494
                       0.73373                       0.00226                      -0.13501
                       0.73356                       0.00218                      -0.13509
                       0.73339                       0.00208                      -0.13518
                       0.73322                       0.00197                      -0.13529
                       0.73303                       0.00186                      -0.13541
                       0.73284                       0.00173                      -0.13554
                       0.73264                       0.00159                      -0.13569
                       0.73243                       0.00145                      -0.13585
                       0.73221                       0.00129                      -0.13602
                       0.73197                       0.00113                      -0.13620
                       0.73173                       0.00095                      -0.13639
                       0.73148                       0.00077                      -0.13659
                       0.73122                       0.00058                      -0.13680
                       0.73096                       0.00038                      -0.13702
                       0.73069                       0.00018                      -0.13724
                       0.73042                      -0.00002                      -0.13747
                       0.73016                      -0.00023                      -0.13770
                       0.72991                      -0.00043                      -0.13794
                       0.72966                      -0.00063                      -0.13817
                       0.72944                      -0.00083                      -0.13841
                       0.72925                      -0.00102                      -0.13863
                       0.72909                      -0.00120                      -0.13886
                       0.72897                      -0.00136                      -0.13907
                       0.72890                      -0.00150                      -0.13927
                       0.72887                      -0.00163                      -0.13946
        </DataArray>
        <DataArray type="Float32" Name="TranslationalAcceleration" NumberOfComponents="3" format="ascii">
                       0.24236                      -1.83073                       1.19197
                       0.38817                      -2.92267                       1.95776
                       0.53102                      -4.02532                       2.70707
                       0.66805                      -5.14902                       3.42379
                       0.80121                      -6.28672                       4.11869
                       0.93236                      -7.43175                       4.80198
                       1.06354                      -8.57668                       5.48487
                       1.19761                      -9.71105                       6.18300
                       1.33577                     -10.83022                       6.90297
                       1.47361                     -11.95048                       7.61992
                       1.61176                     -13.06951                       8.33724
                       1.75150                     -14.18275                       9.06184
                       1.89441                     -15.28455                       9.80234
                       2.03933                     -16.37933                      10.55217
                       2.18425                     -17.47476                      11.29996
                       2.32915                     -18.57102                      12.04551
                       2.47419                     -19.66757                      12.78966
                       2.61939                     -20.76445                      13.53238
                       2.76493                     -21.86101                      14.27461
                       2.91091                     -22.95686                      15.01688
                       3.05738                     -24.05190                      15.75938
                       3.20432                     -25.14631                      16.50198
                       3.35163                     -26.24056                      17.24417
                       3.49926                     -27.33502                      17.98560
                       3.64724                     -28.42964                      18.72640
                       3.79552                     -29.52455                      19.46644
                       3.94411                     -30.61979                      20.20569
                       4.09303                     -31.71538                      20.94430
                       4.24240                     -32.81093                      21.68303
                       4.39221                     -33.90670                      22.42171
                       4.54244                     -35.00265                      23.16044
                       4.69311                     -36.09872                      23.89928
                       4.84424                     -37.19466                      24.63843
                       4.99584                     -38.29030                      25.37800
                       5.14789                     -39.38545                      26.11801
                       5.30045                     -40.48007                      26.85879
                       5.45355                     -41.57411                      27.60053
                       5.60719                     -42.66734                      28.34342
                       5.76140                     -43.75957                      29.08760
                       5.91618                     -44.85056                      29.83315
                       6.07143                     -45.94041                      30.57967
                       6.22709                     -47.02918                      31.32694
                       6.38311                     -48.11684                      32.07480
                       6.53952                     -49.20333                      32.82353
                       6.69628                     -50.28854                      33.57309
                       6.85336                     -51.37241                      34.32338
                       7.01066                     -52.45504                      35.07409
                       7.16806                     -53.53664                      35.82479
                       7.32550                     -54.61708                      36.57525
                       7.49487                     -55.65163                      37.38804
        </DataArray>
        <DataArray type="Float32" Name="OrientationX" NumberOfComponents="3" format="ascii">
                       0.97610                       0.21295                       0.04340
                       0.97595                       0.21377                       0.04273
                       0.97584                       0.21513                       0.03821
                       0.97638                       0.21405                       0.02940
                       0.97784                       0.20850                       0.01877
                       0.97994                       0.19915                       0.00705
                       0.98240                       0.18673                      -0.00506
                       0.98481                       0.17275                      -0.01728
                       0.98646                       0.16106                      -0.03093
                       0.98729                       0.15230                      -0.04534
                       0.98791                       0.14390                      -0.05761
                       0.98864                       0.13474                      -0.06660
                       0.98940                       0.12513                      -0.07370
                       0.98992                       0.11609                      -0.08114
                       0.99025                       0.10763                      -0.08849
                       0.99050                       0.09920                      -0.09523
                       0.99071                       0.09082                      -0.10120
                       0.99084                       0.08301                      -0.10650
                       0.99078                       0.07665                      -0.11171
                       0.99053                       0.07193                      -0.11698
                       0.99012                       0.06844                      -0.12237
                       0.98971                       0.06515                      -0.12736
                       0.98947                       0.06093                      -0.13128
                       0.98938                       0.05584                      -0.13419
                       0.98943                       0.04988                      -0.13617
                       0.98955                       0.04343                      -0.13753
                       0.98947                       0.03842                      -0.13956
                       0.98918                       0.03521                      -0.14240
                       0.98888                       0.03243                      -0.14517
                       0.98868                       0.02903                      -0.14723
                       0.98863                       0.02447                      -0.14837
                       0.98871                       0.01876                      -0.14869
                       0.98886                       0.01197                      -0.14835
                       0.98904                       0.00424                      -0.14762
                       0.98905                      -0.00321                      -0.14752
                       0.98882                      -0.00979                      -0.14881
                       0.98842                      -0.01675                      -0.15079
                       0.98800                      -0.02408                      -0.15256
                       0.98759                      -0.03155                      -0.15383
                       0.98726                      -0.03901                      -0.15423
                       0.98704                      -0.04595                      -0.15373
                       0.98710                      -0.05153                      -0.15156
                       0.98728                      -0.05585                      -0.14886
                       0.98749                      -0.05923                      -0.14613
                       0.98776                      -0.06209                      -0.14309
                       0.98809                      -0.06437                      -0.13977
                       0.98849                      -0.06585                      -0.13622
                       0.98899                      -0.06653                      -0.13216
                       0.98957                      -0.06589                      -0.12809
                       0.99026                      -0.06516                      -0.12304
        </DataArray>
        <DataArray type="Float32" Name="OrientationY" NumberOfComponents="3" format="ascii">
                       0.15053                      -0.51843                      -0.84177
                       0.15039                      -0.51830                      -0.84187
                       0.14723                      -0.51821                      -0.84248
                       0.13920                      -0.51914                      -0.84328
                       0.12740                      -0.52152                      -0.84368
                       0.11275                      -0.52495                      -0.84363
                       0.09621                      -0.52903                      -0.84313
                       0.07875                      -0.53320                      -0.84232
                       0.06122                      -0.53661                      -0.84160
                       0.04456                      -0.53924                      -0.84097
                       0.02989                      -0.54155                      -0.84014
                       0.01757                      -0.54370                      -0.83910
                       0.00659                      -0.54569                      -0.83796
                      -0.00439                      -0.54747                      -0.83682
                      -0.01500                      -0.54904                      -0.83566
                      -0.02510                      -0.55047                      -0.83448
                      -0.03454                      -0.55175                      -0.83329
                      -0.04313                      -0.55286                      -0.83216
                      -0.05087                      -0.55375                      -0.83113
                      -0.05778                      -0.55445                      -0.83021
                      -0.06413                      -0.55503                      -0.82936
                      -0.07004                      -0.55557                      -0.82851
                      -0.07557                      -0.55613                      -0.82765
                      -0.08072                      -0.55669                      -0.82679
                      -0.08557                      -0.55725                      -0.82592
                      -0.09019                      -0.55779                      -0.82507
                      -0.09458                      -0.55827                      -0.82425
                      -0.09866                      -0.55870                      -0.82348
                      -0.10244                      -0.55913                      -0.82273
                      -0.10598                      -0.55958                      -0.82197
                      -0.10938                      -0.56005                      -0.82120
                      -0.11275                      -0.56054                      -0.82042
                      -0.11616                      -0.56103                      -0.81960
                      -0.11980                      -0.56152                      -0.81875
                      -0.12381                      -0.56200                      -0.81782
                      -0.12849                      -0.56249                      -0.81676
                      -0.13396                      -0.56296                      -0.81555
                      -0.13947                      -0.56341                      -0.81432
                      -0.14467                      -0.56384                      -0.81312
                      -0.14915                      -0.56425                      -0.81202
                      -0.15261                      -0.56467                      -0.81108
                      -0.15394                      -0.56516                      -0.81049
                      -0.15414                      -0.56571                      -0.81007
                      -0.15379                      -0.56626                      -0.80975
                      -0.15290                      -0.56681                      -0.80954
                      -0.15146                      -0.56732                      -0.80945
                      -0.14938                      -0.56780                      -0.80950
                      -0.14643                      -0.56824                      -0.80973
                      -0.14273                      -0.56863                      -0.81012
                      -0.13817                      -0.56894                      -0.81069
        </DataArray>
        <DataArray type="Float32" Name="OrientationZ" NumberOfComponents="3" format="ascii">
                      -0.15676                       0.82818                      -0.53810
                      -0.15782                       0.82805                      -0.53799
                      -0.16144                       0.82775                      -0.53737
                      -0.16524                       0.82745                      -0.53667
                      -0.16612                       0.82737                      -0.53652
                      -0.16431                       0.82751                      -0.53688
                      -0.16011                       0.82780                      -0.53768
                      -0.15472                       0.82816                      -0.53871
                      -0.15214                       0.82831                      -0.53921
                      -0.15253                       0.82827                      -0.53917
                      -0.15210                       0.82826                      -0.53931
                      -0.14928                       0.82839                      -0.53989
                      -0.14507                       0.82859                      -0.54073
                      -0.14157                       0.82874                      -0.54144
                      -0.13852                       0.82884                      -0.54207
                      -0.13520                       0.82894                      -0.54275
                      -0.13152                       0.82905                      -0.54349