<?xml version="1.0"?>
<VTKFile type="PolyData" version="0.1" byte_order="LittleEndian">
  <PolyData>
    <Piece NumberOfPoints="     50" NumberOfVerts="  0" NumberOfLines="     49"
           NumberOfStrips="  0" NumberOfPolys="      0">
      <Points>
        <DataArray type="Float32" NumberOfComponents="3" format="ascii">
                     -12.52247                      -3.41798                     148.04549
                     -12.76774                      -5.51955                     146.93580
                     -13.02108                      -7.60285                     145.79583
                     -13.29521                      -9.64990                     144.59694
                     -13.58195                     -11.67267                     143.35827
                     -13.87352                     -13.68253                     142.09798
                     -14.16248                     -15.69193                     140.83624
                     -14.44127                     -17.71815                     139.60169
                     -14.70885                     -19.76844                     138.40690
                     -14.98471                     -21.81487                     137.20735
                     -15.26908                     -23.86104                     136.00946
                     -15.55684                     -25.91473                     134.82570
                     -15.83951                     -27.98579                     133.67138
                     -16.11945                     -30.06700                     132.53432
                     -16.40212                     -32.14575                     131.39359
                     -16.68733                     -34.22182                     130.24875
                     -16.97465                     -36.29614                     129.10135
                     -17.26344                     -38.36875                     127.95127
                     -17.55552                     -40.44051                     126.80053
                     -17.85523                     -42.51169                     125.65067
                     -18.16568                     -44.58228                     124.50241
                     -18.48986                     -46.65183                     123.35574
                     -18.82556                     -48.71993                     122.20937
                     -19.16961                     -50.78636                     121.06212
                     -19.52014                     -52.85136                     119.91396
                     -19.87410                     -54.91502                     118.76427
                     -20.23200                     -56.97720                     117.61297
                     -20.60191                     -59.03736                     116.46106
                     -20.98593                     -61.09605                     115.31007
                     -21.38443                     -63.15293                     114.15949
                     -21.79384                     -65.20833                     113.00899
                     -22.21162                     -67.26246                     111.85834
                     -22.63456                     -69.31580                     110.70755
                     -23.06071                     -71.36858                     109.55660
                     -23.48810                     -73.42101                     108.40533
                     -23.92221                     -75.47288                     107.25474
                     -24.36524                     -77.52409                     106.10519
                     -24.81582                     -79.57494                     104.95689
                     -25.27355                     -81.62559                     103.81001
                     -25.73702                     -83.67629                     102.66465
                     -26.20526                     -85.72673                     101.52001
                     -26.67861                     -87.77671                     100.37583
                     -27.15690                     -89.82616                      99.23196
                     -27.64274                     -91.87522                      98.08924
                     -28.13571                     -93.92405                      96.94792
                     -28.63565                     -95.97279                      95.80816
                     -29.14216                     -98.02138                      94.66977
                     -29.65566                    -100.06961                      93.53248
                     -30.17438                    -102.11781                      92.39644
                     -30.68883                    -104.23673                      91.38433
        </DataArray>
      </Points>
      <PointData>
        <DataArray type="Float32" Name="RefOrientationX" NumberOfComponents="3" format="ascii">
                       0.92950                       0.08973                      -0.35773
                       0.92944                       0.08882                      -0.35812
                       0.93010                       0.08390                      -0.35759
                       0.93237                       0.07589                      -0.35344
                       0.93617                       0.06797                      -0.34490
                       0.94105                       0.06050                      -0.33280
                       0.94656                       0.05377                      -0.31803
                       0.95214                       0.04733                      -0.30198
                       0.95705                       0.03825                      -0.28740
                       0.96103                       0.02685                      -0.27513
                       0.96433                       0.01696                      -0.26416
                       0.96715                       0.01013                      -0.25401
                       0.96967                       0.00501                      -0.24435
                       0.97196                      -0.00086                      -0.23513
                       0.97398                      -0.00709                      -0.22652
                       0.97580                      -0.01296                      -0.21826
                       0.97743                      -0.01833                      -0.21046
                       0.97879                      -0.02352                      -0.20351
                       0.97977                      -0.02943                      -0.19796
                       0.98035                      -0.03631                      -0.19389
                       0.98062                      -0.04401                      -0.19094
                       0.98073                      -0.05160                      -0.18841
                       0.98091                      -0.05799                      -0.18563
                       0.98114                      -0.06326                      -0.18263
                       0.98146                      -0.06748                      -0.17938
                       0.98181                      -0.07111                      -0.17606
                       0.98183                      -0.07619                      -0.17381
                       0.98144                      -0.08298                      -0.17289
                       0.98089                      -0.09008                      -0.17248
                       0.98037                      -0.09646                      -0.17194
                       0.98003                      -0.10167                      -0.17088
                       0.97987                      -0.10582                      -0.16928
                       0.97989                      -0.10906                      -0.16711
                       0.98006                      -0.11170                      -0.16435
                       0.98011                      -0.11518                      -0.16163
                       0.97989                      -0.12040                      -0.15910
                       0.97967                      -0.12618                      -0.15597
                       0.97948                      -0.13166                      -0.15262
                       0.97929                      -0.13665                      -0.14937
                       0.97914                      -0.14084                      -0.14649
                       0.97893                      -0.14437                      -0.14444
                       0.97858                      -0.14686                      -0.14427
                       0.97806                      -0.14923                      -0.14535
                       0.97741                      -0.15173                      -0.14715
                       0.97674                      -0.15386                      -0.14937
                       0.97605                      -0.15561                      -0.15203
                       0.97531                      -0.15704                      -0.15524
                       0.97458                      -0.15777                      -0.15909
                       0.97370                      -0.15843                      -0.16376
                       0.97298                      -0.15770                      -0.16864
        </DataArray>
        <DataArray type="Float32" Name="RefOrientationY" NumberOfComponents="3" format="ascii">
                       0.35341                      -0.49407                       0.79435
                       0.35327                      -0.49431                       0.79426
                       0.35028                      -0.49552                       0.79483
                       0.34263                      -0.49725                       0.79709
                       0.33131                      -0.49862                       0.80101
                       0.31720                      -0.49958                       0.80611
                       0.30119                      -0.50014                       0.81188
                       0.28424                      -0.50051                       0.81774
                       0.26718                      -0.50130                       0.82299
                       0.25092                      -0.50236                       0.82745
                       0.23655                      -0.50307                       0.83124
                       0.22443                      -0.50332                       0.83445
                       0.21359                      -0.50333                       0.83728
                       0.20275                      -0.50339                       0.83994
                       0.19225                      -0.50343                       0.84238
                       0.18223                      -0.50340                       0.84462
                       0.17286                      -0.50330                       0.84665
                       0.16432                      -0.50318                       0.84842
                       0.15661                      -0.50311                       0.84991
                       0.14971                      -0.50309                       0.85117
                       0.14337                      -0.50309                       0.85226
                       0.13745                      -0.50303                       0.85327
                       0.13193                      -0.50289                       0.85423
                       0.12676                      -0.50267                       0.85513
                       0.12190                      -0.50241                       0.85599
                       0.11728                      -0.50212                       0.85681
                       0.11287                      -0.50186                       0.85755
                       0.10877                      -0.50163                       0.85822
                       0.10497                      -0.50138                       0.85884
                       0.10142                      -0.50110                       0.85942
                       0.09800                      -0.50079                       0.86000
                       0.09462                      -0.50045                       0.86058
                       0.09120                      -0.50008                       0.86117
                       0.08757                      -0.49967                       0.86178
                       0.08356                      -0.49919                       0.86245
                       0.07889                      -0.49861                       0.86323
                       0.07345                      -0.49788                       0.86413
                       0.06797                      -0.49710                       0.86503
                       0.06281                      -0.49633                       0.86586
                       0.05836                      -0.49564                       0.86657
                       0.05492                      -0.49507                       0.86711
                       0.05361                      -0.49481                       0.86735
                       0.05343                      -0.49469                       0.86743
                       0.05380                      -0.49464                       0.86743
                       0.05472                      -0.49469                       0.86735
                       0.05618                      -0.49483                       0.86717
                       0.05827                      -0.49507                       0.86689
                       0.06123                      -0.49548                       0.86646
                       0.06492                      -0.49600                       0.86589
                       0.06944                      -0.49670                       0.86514
        </DataArray>
        <DataArray type="Float32" Name="RefOrientationZ" NumberOfComponents="3" format="ascii">
                      -0.10547                      -0.86478                      -0.49095
                      -0.10648                      -0.86473                      -0.49081
                      -0.11050                      -0.86453                      -0.49027
                      -0.11526                      -0.86428                      -0.48963
                      -0.11753                      -0.86415                      -0.48931
                      -0.11749                      -0.86415                      -0.48932
                      -0.11541                      -0.86427                      -0.48961
                      -0.11244                      -0.86443                      -0.49001
                      -0.11260                      -0.86443                      -0.48999
                      -0.11600                      -0.86424                      -0.48953
                      -0.11880                      -0.86408                      -0.48914
                      -0.11939                      -0.86404                      -0.48905
                      -0.11879                      -0.86408                      -0.48914
                      -0.11909                      -0.86406                      -0.48910
                      -0.12001                      -0.86401                      -0.48897
                      -0.12082                      -0.86396                      -0.48886
                      -0.12144                      -0.86392                      -0.48877
                      -0.12236                      -0.86386                      -0.48864
                      -0.12461                      -0.86372                      -0.48832
                      -0.12845                      -0.86347                      -0.48777
                      -0.13357                      -0.86311                      -0.48703
                      -0.13881                      -0.86272                      -0.48625
                      -0.14289                      -0.86241                      -0.48563
                      -0.14590                      -0.86216                      -0.48518
                      -0.14788                      -0.86199                      -0.48487
                      -0.14933                      -0.86187                      -0.48465
                      -0.15256                      -0.86159                      -0.48414
                      -0.15794                      -0.86109                      -0.48329
                      -0.16384                      -0.86053                      -0.48234
                      -0.16906                      -0.86000                      -0.48148
                      -0.17301                      -0.85958                      -0.48083
                      -0.17578                      -0.85928                      -0.48036
                      -0.17749                      -0.85909                      -0.48007
                      -0.17839                      -0.85899                      -0.47992
                      -0.18003                      -0.85880                      -0.47964
                      -0.18327                      -0.85843                      -0.47908
                      -0.18669                      -0.85802                      -0.47849
                      -0.18975                      -0.85765                      -0.47795
                      -0.19245                      -0.85731                      -0.47747
                      -0.19465                      -0.85704                      -0.47708
                      -0.19669                      -0.85677                      -0.47671
                      -0.19877                      -0.85650                      -0.47634
                      -0.20135                      -0.85616                      -0.47586
                      -0.20440                      -0.85575                      -0.47530
                      -0.20734                      -0.85534                      -0.47476
                      -0.21017                      -0.85495                      -0.47423
                      -0.21299                      -0.85454                      -0.47370
                      -0.21553                      -0.85417                      -0.47322
                      -0.21841                      -0.85375                      -0.47267
                      -0.22019                      -0.85348                      -0.47233
        </DataArray>
      </PointData>
      <Lines>
        <DataArray type="Int32" Name="connectivity" format="ascii">
      0      1
      1      2
      2      3
      3      4
      4      5
      5      6
      6      7
      7      8
      8      9
      9     10
     10     11
     11     12
     12     13
     13     14
     14     15
     15     16
     16     17
     17     18
     18     19
     19     20
     20     21
     21     22
     22     23
     23     24
     24     25
     25     26
     26     27
     27     28
     28     29
     29     30
     30     31
     31     32
     32     33
     33     34
     34     35
     35     36
     36     37
     37     38
     38     39
     39     40
     40     41
     41     42
     42     43
     43     44
     44     45
     45     46
     46     47
     47     48
     48     49
        </DataArray>
        <DataArray type="Int32" Name="offsets" format="ascii">
      2
      4
      6
      8
     10
     12
     14
     16
     18
     20
     22
     24
     26
     28
     30
     32
     34
     36
     38
     40
     42
     44
     46
     48
     50
     52
     54
     56
     58
     60
     62
     64
     66
     68
     70
     72
     74
     76
     78
     80
     82
     84
     86
     88
     90
     92
     94
     96
     98
        </DataArray>
      </Lines>
    </Piece>
  </PolyData>
</VTKFile>
