<?xml version="1.0"?>
<VTKFile type="PolyData" version="0.1" byte_order="LittleEndian">
  <PolyData>
    <Piece NumberOfPoints="     50" NumberOfVerts="  0" NumberOfLines="     49"
           NumberOfStrips="  0" NumberOfPolys="      0">
      <Points>
        <DataArray type="Float32" NumberOfComponents="3" format="ascii">
                      21.71756                      -4.82296                     149.06608
                      21.52165                      -7.16136                     148.61702
                      21.31472                      -9.49116                     148.13425
                      21.08234                     -11.80365                     147.58559
                      20.83594                     -14.10443                     146.99131
                      20.58630                     -16.39881                     146.37074
                      20.34397                     -18.69263                     145.74561
                      20.12042                     -20.99401                     145.14713
                      19.91883                     -23.30635                     144.58898
                      19.71579                     -25.61633                     144.02222
                      19.51242                     -27.92569                     143.45384
                      19.31579                     -30.23826                     142.89741
                      19.13660                     -32.55884                     142.36954
                      18.97179                     -34.88405                     141.85673
                      18.81424                     -37.20787                     141.33586
                      18.66462                     -39.53020                     140.80646
                      18.52403                     -41.85147                     140.27023
                      18.39359                     -44.17167                     139.72703
                      18.27215                     -46.49124                     139.17918
                      18.15598                     -48.81047                     138.62852
                      18.04253                     -51.12954                     138.07591
                      17.92926                     -53.44848                     137.52141
                      17.81879                     -55.76718                     136.96342
                      17.71471                     -58.08548                     136.40052
                      17.61947                     -60.40348                     135.83256
                      17.53646                     -62.72106                     135.25879
                      17.46571                     -65.03819                     134.67905
                      17.39993                     -67.35524                     134.09454
                      17.33770                     -69.67285                     133.50685
                      17.27920                     -71.99110                     132.91532
                      17.22859                     -74.30996                     132.31940
                      17.18896                     -76.62940                     131.71871
                      17.16410                     -78.94930                     131.11316
                      17.15650                     -81.26951                     130.50265
                      17.16860                     -83.58977                     129.88699
                      17.19541                     -85.91063                     129.26730
                      17.23514                     -88.23234                     128.64402
                      17.28947                     -90.55485                     128.01740
                      17.35901                     -92.87813                     127.38773
                      17.44531                     -95.20195                     126.75526
                      17.54916                     -97.52581                     126.11925
                      17.67001                     -99.84947                     125.47959
                      17.80759                    -102.17261                     124.83628
                      17.95878                    -104.49561                     124.19046
                      18.12319                    -106.81823                     123.54262
                      18.29993                    -109.14023                     122.89328
                      18.48800                    -111.46117                     122.24261
                      18.68531                    -113.78067                     121.59078
                      18.89161                    -116.09810                     120.93858
                      19.12682                    -118.45021                     120.42185
        </DataArray>
      </Points>
      <PointData>
        <DataArray type="Float32" Name="TranslationalVelocity" NumberOfComponents="3" format="ascii">
                      -0.38678                       0.70342                      -2.69037
                      -0.68751                       1.04844                      -4.35576
                      -0.98728                       1.41887                      -6.01493
                      -1.28512                       1.83948                      -7.66156
                      -1.58168                       2.29435                      -9.29965
                      -1.87755                       2.76830                     -10.93299
                      -2.17342                       3.24452                     -12.56576
                      -2.47020                       3.69928                     -14.20377
                      -2.76828                       4.12245                     -15.84944
                      -3.06619                       4.55189                     -17.49317
                      -3.36414                       4.98245                     -19.13620
                      -3.66257                       5.40359                     -20.78127
                      -3.96205                       5.80211                     -22.43185
                      -4.26220                       6.18804                     -24.08552
                      -4.56238                       6.57872                     -25.73797
                      -4.86259                       6.97441                     -27.38914
                      -5.16289                       7.37375                     -29.03933
                      -5.46328                       7.77670                     -30.68856
                      -5.76384                       8.18177                     -32.33715
                      -6.06460                       8.58810                     -33.98527
                      -6.36558                       8.99543                     -35.63306
                      -6.66680                       9.40405                     -37.28052
                      -6.96826                       9.81475                     -38.92760
                      -7.26996                      10.22808                     -40.57419
                      -7.57192                      10.64382                     -42.22039
                      -7.87413                      11.06209                     -43.86611
                      -8.17660                      11.48296                     -45.51135
                      -8.47938                      11.90654                     -47.15631
                      -8.78255                      12.33189                     -48.80145
                      -9.08614                      12.75943                     -50.44681
                      -9.39014                      13.18903                     -52.09239
                      -9.69456                      13.62055                     -53.73816
                      -9.99940                      14.05355                     -55.38406
                     -10.30464                      14.48778                     -57.02999
                     -10.61024                      14.92304                     -58.67576
                     -10.91629                      15.35919                     -60.32173
                     -11.22282                      15.79614                     -61.96807
                     -11.52982                      16.23348                     -63.61474
                     -11.83728                      16.67093                     -65.26171
                     -12.14518                      17.10811                     -66.90884
                     -12.45345                      17.54542                     -68.55578
                     -12.76206                      17.98300                     -70.20236
                     -13.07096                      18.42090                     -71.84836
                     -13.38018                      18.85872                     -73.49406
                     -13.68967                      19.29614                     -75.13929
                     -13.99939                      19.73292                     -76.78392
                     -14.30924                      20.16908                     -78.42768
                     -14.61916                      20.60476                     -80.07032
                     -14.92904                      21.03946                     -81.71147
                     -15.24290                      21.37440                     -83.37731
        </DataArray>
        <DataArray type="Float32" Name="RotationalVelocity" NumberOfComponents="3" format="ascii">
                       0.71255                       0.00427                      -0.12779
                       0.71254                       0.00427                      -0.12778
                       0.71251                       0.00427                      -0.12778
                       0.71246                       0.00428                      -0.12778
                       0.71239                       0.00429                      -0.12779
                       0.71231                       0.00430                      -0.12780
                       0.71222                       0.00431                      -0.12782
                       0.71212                       0.00433                      -0.12785
                       0.71201                       0.00435                      -0.12788
                       0.71190                       0.00437                      -0.12792
                       0.71179                       0.00439                      -0.12796
                       0.71167                       0.00441                      -0.12801
                       0.71156                       0.00444                      -0.12807
                       0.71145                       0.00446                      -0.12814
                       0.71134                       0.00449                      -0.12820
                       0.71123                       0.00452                      -0.12828
                       0.71112                       0.00455                      -0.12836
                       0.71102                       0.00458                      -0.12844
                       0.71092                       0.00461                      -0.12853
                       0.71082                       0.00464                      -0.12862
                       0.71072                       0.00467                      -0.12872
                       0.71062                       0.00470                      -0.12882
                       0.71053                       0.00473                      -0.12893
                       0.71043                       0.00477                      -0.12903
                       0.71034                       0.00480                      -0.12914
                       0.71024                       0.00484                      -0.12926
                       0.71015                       0.00487                      -0.12937
                       0.71005                       0.00491                      -0.12949
                       0.70995                       0.00495                      -0.12961
                       0.70985                       0.00498                      -0.12973
                       0.70974                       0.00502                      -0.12986
                       0.70963                       0.00506                      -0.12998
                       0.70952                       0.00510                      -0.13011
                       0.70941                       0.00514                      -0.13024
                       0.70929                       0.00518                      -0.13036
                       0.70917                       0.00522                      -0.13049
                       0.70905                       0.00527                      -0.13062
                       0.70893                       0.00531                      -0.13075
                       0.70880                       0.00535                      -0.13088
                       0.70868                       0.00539                      -0.13101
                       0.70856                       0.00543                      -0.13113
                       0.70844                       0.00547                      -0.13126
                       0.70833                       0.00551                      -0.13137
                       0.70822                       0.00554                      -0.13149
                       0.70813                       0.00558                      -0.13160
                       0.70804                       0.00561                      -0.13170
                       0.70798                       0.00564                      -0.13179
                       0.70793                       0.00566                      -0.13187
                       0.70790                       0.00568                      -0.13195
                       0.70789                       0.00569                      -0.13201
        </DataArray>
        <DataArray type="Float32" Name="TranslationalAcceleration" NumberOfComponents="3" format="ascii">
                       0.05492                       2.04482                       0.47366
                       0.09021                       3.27049                       0.71861
                       0.12881                       4.49158                       0.98178
                       0.17394                       5.70343                       1.28096
                       0.22354                       6.90888                       1.60486
                       0.27564                       8.11061                       1.94276
                       0.32802                       9.31163                       2.28273
                       0.37762                      10.51616                       2.60793
                       0.42308                      11.72597                       2.91121
                       0.46928                      12.93403                       3.21954
                       0.51554                      14.14127                       3.52926
                       0.56046                      15.34970                       3.83290
                       0.60229                      16.56189                       4.12108
                       0.64232                      17.77608                       4.40093
                       0.68276                      18.98910                       4.68477
                       0.72364                      20.20089                       4.97278
                       0.76476                      21.41171                       5.26396
                       0.80609                      22.62155                       5.55826
                       0.84743                      23.83067                       5.85461
                       0.88866                      25.03922                       6.15240
                       0.92973                      26.24731                       6.45139
                       0.97070                      27.45496                       6.75181
                       1.01164                      28.66212                       7.05418
                       1.05264                      29.86871                       7.35890
                       1.09367                      31.07479                       7.66579
                       1.13476                      32.28030                       7.97494
                       1.17592                      33.48522                       8.28638
                       1.21717                      34.68971                       8.60021
                       1.25841                      35.89412                       8.91576
                       1.29970                      37.09846                       9.23336
                       1.34103                      38.30272                       9.55289
                       1.38241                      39.50684                       9.87429
                       1.42380                      40.71077                      10.19725
                       1.46519                      41.91439                      10.52159
                       1.50656                      43.11756                      10.84720
                       1.54792                      44.32053                      11.17397
                       1.58927                      45.52344                      11.50188
                       1.63058                      46.72624                      11.83065
                       1.67182                      47.92891                      12.16006
                       1.71297                      49.13132                      12.48986
                       1.75410                      50.33322                      12.82031
                       1.79524                      51.53448                      13.15152
                       1.83642                      52.73497                      13.48347
                       1.87759                      53.93489                      13.81584
                       1.91873                      55.13417                      14.14838
                       1.95983                      56.33275                      14.48084
                       2.00090                      57.53048                      14.81314
                       2.04195                      58.72724                      15.14527
                       2.08293                      59.92283                      15.47675
                       2.11071                      61.13770                      15.73787
        </DataArray>
        <DataArray type="Float32" Name="OrientationX" NumberOfComponents="3" format="ascii">
                       0.89527                       0.01896                      -0.44512
                       0.89523                       0.01793                      -0.44524
                       0.89626                       0.01384                      -0.44330
                       0.89940                       0.00848                      -0.43704
                       0.90442                       0.00505                      -0.42662
                       0.91077                       0.00357                      -0.41290
                       0.91790                       0.00399                      -0.39679
                       0.92520                       0.00541                      -0.37944
                       0.93192                       0.00419                      -0.36264
                       0.93776                       0.00035                      -0.34727
                       0.94277                      -0.00218                      -0.33345
                       0.94702                      -0.00179                      -0.32116
                       0.95083                       0.00032                      -0.30972
                       0.95443                       0.00176                      -0.29842
                       0.95776                       0.00288                      -0.28754
                       0.96085                       0.00442                      -0.27704
                       0.96366                       0.00648                      -0.26704
                       0.96615                       0.00865                      -0.25785
                       0.96826                       0.00990                      -0.24974
                       0.97004                       0.00997                      -0.24274
                       0.97158                       0.00912                      -0.23654
                       0.97298                       0.00843                      -0.23074
                       0.97432                       0.00917                      -0.22496
                       0.97561                       0.01124                      -0.21921
                       0.97685                       0.01459                      -0.21344
                       0.97801                       0.01873                      -0.20770
                       0.97904                       0.02138                      -0.20256
                       0.97991                       0.02221                      -0.19821
                       0.98069                       0.02278                      -0.19422
                       0.98144                       0.02429                      -0.19025
                       0.98217                       0.02726                      -0.18602
                       0.98289                       0.03158                      -0.18149
                       0.98359                       0.03711                      -0.17658
                       0.98427                       0.04353                      -0.17122
                       0.98496                       0.04924                      -0.16563
                       0.98571                       0.05330                      -0.15978
                       0.98655                       0.05705                      -0.15320
                       0.98732                       0.06115                      -0.14646
                       0.98798                       0.06569                      -0.13993
                       0.98845                       0.07084                      -0.13397
                       0.98871                       0.07629                      -0.12898
                       0.98862                       0.08208                      -0.12611
                       0.98836                       0.08742                      -0.12452
                       0.98803                       0.09213                      -0.12369
                       0.98763                       0.09671                      -0.12345
                       0.98714                       0.10106                      -0.12384
                       0.98658                       0.10503                      -0.12500
                       0.98590                       0.10883                      -0.12710
                       0.98517                       0.11171                      -0.13022
                       0.98425                       0.11525                      -0.13405
        </DataArray>
        <DataArray type="Float32" Name="OrientationY" NumberOfComponents="3" format="ascii">
                       0.43686                      -0.23341                       0.86872
                       0.43673                      -0.23373                       0.86870
                       0.43385                      -0.23494                       0.86981
                       0.42647                      -0.23642                       0.87306
                       0.41553                      -0.23727                       0.87809
                       0.40186                      -0.23759                       0.88434
                       0.38631                      -0.23748                       0.89128
                       0.36980                      -0.23727                       0.89830
                       0.35317                      -0.23771                       0.90485
                       0.33732                      -0.23866                       0.91064
                       0.32326                      -0.23941                       0.91552
                       0.31138                      -0.23981                       0.91953
                       0.30073                      -0.24006                       0.92300
                       0.29007                      -0.24044                       0.92631
                       0.27974                      -0.24088                       0.92937
                       0.26988                      -0.24131                       0.93217
                       0.26064                      -0.24172                       0.93469
                       0.25221                      -0.24215                       0.93688
                       0.24462                      -0.24266                       0.93876
                       0.23782                      -0.24324                       0.94036
                       0.23157                      -0.24386                       0.94176
                       0.22575                      -0.24443                       0.94302
                       0.22031                      -0.24491                       0.94418
                       0.21522                      -0.24533                       0.94525
                       0.21042                      -0.24571                       0.94623
                       0.20586                      -0.24608                       0.94714
                       0.20152                      -0.24651                       0.94796
                       0.19749                      -0.24696                       0.94869
                       0.19376                      -0.24741                       0.94934
                       0.19027                      -0.24783                       0.94993
                       0.18691                      -0.24824                       0.95050
                       0.18359                      -0.24864                       0.95104
                       0.18023                      -0.24906                       0.95157
                       0.17666                      -0.24952                       0.95212
                       0.17271                      -0.25002                       0.95271
                       0.16810                      -0.25055                       0.95340
                       0.16269                      -0.25114                       0.95418
                       0.15725                      -0.25175                       0.95493
                       0.15213                      -0.25235                       0.95560
                       0.14772                      -0.25293                       0.95614
                       0.14434                      -0.25345                       0.95652
                       0.14310                      -0.25380                       0.95661
                       0.14299                      -0.25402                       0.95657
                       0.14344                      -0.25414                       0.95647
                       0.14443                      -0.25419                       0.95631
                       0.14597                      -0.25415                       0.95609
                       0.14814                      -0.25399                       0.95580
                       0.15117                      -0.25368                       0.95540
                       0.15494                      -0.25320                       0.95492
                       0.15955                      -0.25259                       0.95433
        </DataArray>
        <DataArray type="Float32" Name="OrientationZ" NumberOfComponents="3" format="ascii">
                      -0.08742                      -0.97219                      -0.21724
                      -0.08849                      -0.97214                      -0.21707
                      -0.09211                      -0.97191                      -0.21657
                      -0.09592                      -0.97161                      -0.21625
                      -0.09679                      -0.97143                      -0.21669
                      -0.09494                      -0.97136                      -0.21782
                      -0.09068                      -0.97138                      -0.21952
                      -0.08517                      -0.97143                      -0.22153
                      -0.08241                      -0.97133                      -0.22301
                      -0.08256                      -0.97110                      -0.22392
                      -0.08183                      -0.97092                      -0.22500
                      -0.07866                      -0.97082                      -0.22655
                      -0.07406                      -0.97076                      -0.22835
                      -0.07012                      -0.97066                      -0.22999
                      -0.06659                      -0.97055                      -0.23151
                      -0.06273                      -0.97044                      -0.23305
                      -0.05849                      -0.97032                      -0.23462