<?xml version="1.0"?>
<VTKFile type="PolyData" version="0.1" byte_order="LittleEndian">
  <PolyData>
    <Piece NumberOfPoints="     50" NumberOfVerts="  0" NumberOfLines="     49"
           NumberOfStrips="  0" NumberOfPolys="      0">
      <Points>
        <DataArray type="Float32" NumberOfComponents="3" format="ascii">
                      16.38977                       3.04347                     150.36008
                      16.28717                       5.41766                     150.60675
                      16.18602                       7.78701                     150.88904
                      16.08406                      10.14651                     151.24239
                      15.98466                      12.49962                     151.64299
                      15.89094                      14.84959                     152.06823
                      15.80500                      17.19988                     152.49338
                      15.72642                      19.55507                     152.88433
                      15.65320                      21.91690                     153.22674
                      15.58055                      24.27771                     153.57571
                      15.50693                      26.63845                     153.92409
                      15.43407                      29.00128                     154.25640
                      15.36603                      31.36894                     154.55294
                      15.30461                      33.73955                     154.82778
                      15.25123                      36.10988                     155.10565
                      15.20662                      38.47987                     155.38686
                      15.17118                      40.84977                     155.66947
                      15.14594                      43.21958                     155.95332
                      15.12902                      45.58949                     156.23667
                      15.11625                      47.95955                     156.51914
                      15.10492                      50.32984                     156.80084
                      15.09262                      52.70039                     157.08266
                      15.08238                      55.07126                     157.36522
                      15.07808                      57.44248                     157.64866
                      15.08207                      59.81418                     157.93227
                      15.09783                      62.18635                     158.21563
                      15.12547                      64.55899                     158.49882
                      15.15772                      66.93235                     158.78319
                      15.19272                      69.30686                     159.06759
                      15.23087                      71.68269                     159.35253
                      15.27630                      74.05993                     159.63699
                      15.33207                      76.43861                     159.92020
                      15.40182                      78.81869                     160.20086
                      15.48795                      81.20005                     160.47813
                      15.59288                      83.58250                     160.75127
                      15.71154                      85.96645                     161.02081
                      15.84213                      88.35213                     161.28684
                      15.98619                      90.73945                     161.54848
                      16.14424                      93.12836                     161.80518
                      16.31770                      95.51864                     162.05619
                      16.50767                      97.90990                     162.30197
                      16.71374                     100.30193                     162.54286
                      16.93577                     102.69441                     162.77906
                      17.17054                     105.08754                     163.01067
                      17.41763                     107.48099                     163.23754
                      17.67619                     109.87441                     163.45979
                      17.94537                     112.26729                     163.67796
                      18.22337                     114.65919                     163.89308
                      18.50991                     117.04928                     164.10507
                      18.77535                     119.45379                     164.17653
        </DataArray>
      </Points>
      <PointData>
        <DataArray type="Float32" Name="TranslationalVelocity" NumberOfComponents="3" format="ascii">
                       0.71027                      -0.33086                       2.73118
                       1.01468                      -0.49127                       4.40184
                       1.31866                      -0.67694                       6.06911
                       1.62181                      -0.91249                       7.72951
                       1.92448                      -1.18163                       9.38549
                       2.22700                      -1.46885                      11.03932
                       2.52972                      -1.75702                      12.69345
                       2.83308                      -2.02208                      14.35110
                       3.13724                      -2.25370                      16.01352
                       3.44156                      -2.49003                      17.67535
                       3.74612                      -2.72583                      19.33725
                       4.05116                      -2.95042                      21.00075
                       4.35692                      -3.15048                      22.66773
                       4.66327                      -3.33611                      24.33686
                       4.96994                      -3.52491                      26.00585
                       5.27694                      -3.71719                      27.67465
                       5.58431                      -3.91165                      29.34343
                       5.89206                      -4.10829                      31.01216
                       6.20022                      -4.30567                      32.68099
                       6.50882                      -4.50297                      34.34997
                       6.81787                      -4.69991                      36.01914
                       7.12741                      -4.89681                      37.68856
                       7.43747                      -5.09450                      39.35823
                       7.74806                      -5.29357                      41.02816
                       8.05923                      -5.49383                      42.69841
                       8.37097                      -5.69544                      44.36894
                       8.68332                      -5.89849                      46.03976
                       8.99634                      -6.10294                      47.71109
                       9.31011                      -6.30778                      49.38322
                       9.62466                      -6.51339                      51.05628
                       9.94003                      -6.71960                      52.73031
                      10.25625                      -6.92627                      54.40531
                      10.57332                      -7.13297                      56.08121
                      10.89124                      -7.33944                      57.75794
                      11.21001                      -7.54548                      59.43534
                      11.52970                      -7.75080                      61.11372
                      11.85036                      -7.95523                      62.79326
                      12.17200                      -8.15835                      64.47387
                      12.49460                      -8.35987                      66.15553
                      12.81814                      -8.55945                      67.83805
                      13.14259                      -8.75756                      69.52116
                      13.46789                      -8.95442                      71.20470
                      13.79402                      -9.15017                      72.88844
                      14.12096                      -9.34442                      74.57254
                      14.44866                      -9.53707                      76.25676
                      14.77702                      -9.72807                      77.94085
                      15.10593                      -9.91771                      79.62445
                      15.43527                     -10.10649                      81.30724
                      15.76486                     -10.29432                      82.98863
                      16.09592                     -10.38040                      84.68021
        </DataArray>
        <DataArray type="Float32" Name="RotationalVelocity" NumberOfComponents="3" format="ascii">
                       0.70344                       0.00525                      -0.12767
                       0.70345                       0.00525                      -0.12767
                       0.70347                       0.00525                      -0.12768
                       0.70350                       0.00526                      -0.12771
                       0.70354                       0.00527                      -0.12775
                       0.70358                       0.00528                      -0.12781
                       0.70363                       0.00529                      -0.12788
                       0.70368                       0.00530                      -0.12797
                       0.70373                       0.00532                      -0.12806
                       0.70379                       0.00534                      -0.12817
                       0.70384                       0.00535                      -0.12828
                       0.70389                       0.00537                      -0.12840
                       0.70393                       0.00539                      -0.12853
                       0.70398                       0.00542                      -0.12867
                       0.70402                       0.00544                      -0.12881
                       0.70406                       0.00546                      -0.12896
                       0.70409                       0.00548                      -0.12912
                       0.70412                       0.00551                      -0.12928
                       0.70415                       0.00553                      -0.12945
                       0.70417                       0.00556                      -0.12963
                       0.70419                       0.00558                      -0.12981
                       0.70421                       0.00561                      -0.13000
                       0.70423                       0.00564                      -0.13020
                       0.70424                       0.00567                      -0.13040
                       0.70425                       0.00570                      -0.13061
                       0.70426                       0.00573                      -0.13083
                       0.70427                       0.00576                      -0.13106
                       0.70428                       0.00579                      -0.13130
                       0.70428                       0.00583                      -0.13154
                       0.70429                       0.00586                      -0.13179
                       0.70429                       0.00590                      -0.13206
                       0.70429                       0.00593                      -0.13232
                       0.70430                       0.00597                      -0.13260
                       0.70430                       0.00601                      -0.13288
                       0.70430                       0.00605                      -0.13317
                       0.70431                       0.00609                      -0.13347
                       0.70431                       0.00613                      -0.13377
                       0.70431                       0.00617                      -0.13407
                       0.70431                       0.00622                      -0.13438
                       0.70430                       0.00626                      -0.13468
                       0.70430                       0.00630                      -0.13499
                       0.70430                       0.00634                      -0.13528
                       0.70429                       0.00638                      -0.13558
                       0.70428                       0.00642                      -0.13586
                       0.70427                       0.00645                      -0.13613
                       0.70426                       0.00649                      -0.13638
                       0.70424                       0.00652                      -0.13661
                       0.70422                       0.00655                      -0.13682
                       0.70420                       0.00657                      -0.13700
                       0.70416                       0.00659                      -0.13715
        </DataArray>
        <DataArray type="Float32" Name="TranslationalAcceleration" NumberOfComponents="3" format="ascii">
                      -0.02194                      -1.99028                      -0.24362
                      -0.03495                      -3.20432                      -0.35899
                      -0.05116                      -4.41594                      -0.49198
                      -0.07370                      -5.62268                      -0.65981
                      -0.10048                      -6.82635                      -0.85093
                      -0.12952                      -8.02868                      -1.05435
                      -0.15861                      -9.23145                      -1.25798
                      -0.18465                     -10.43697                      -1.44484
                      -0.20631                     -11.64615                      -1.60762
                      -0.22842                     -12.85514                      -1.77314
                      -0.25032                     -14.06443                      -1.93771
                      -0.27060                     -15.27509                      -2.09381
                      -0.28753                     -16.48843                      -2.23206
                      -0.30241                     -17.70349                      -2.35958
                      -0.31748                     -18.91867                      -2.48879
                      -0.33277                     -20.13393                      -2.61993
                      -0.34811                     -21.34938                      -2.75208
                      -0.36352                     -22.56501                      -2.88529
                      -0.37881                     -23.78091                      -3.01855
                      -0.39387                     -24.99711                      -3.15131
                      -0.40869                     -26.21366                      -3.28337
                      -0.42332                     -27.43057                      -3.41498
                      -0.43789                     -28.64786                      -3.54673
                      -0.45248                     -29.86554                      -3.67905
                      -0.46709                     -31.08365                      -3.81182
                      -0.48178                     -32.30219                      -3.94515
                      -0.49657                     -33.52115                      -4.07909
                      -0.51149                     -34.74069                      -4.21362
                      -0.52642                     -35.96106                      -4.34798
                      -0.54144                     -37.18233                      -4.48245
                      -0.55657                     -38.40456                      -4.61690
                      -0.57180                     -39.62774                      -4.75120
                      -0.58712                     -40.85186                      -4.88503
                      -0.60251                     -42.07683                      -5.01819
                      -0.61800                     -43.30257                      -5.15052
                      -0.63355                     -44.52930                      -5.28180
                      -0.64918                     -45.75714                      -5.41187
                      -0.66485                     -46.98605                      -5.54043
                      -0.68054                     -48.21599                      -5.66725
                      -0.69625                     -49.44682                      -5.79209
                      -0.71204                     -50.67834                      -5.91531
                      -0.72798                     -51.91041                      -6.03704
                      -0.74410                     -53.14287                      -6.15741
                      -0.76036                     -54.37580                      -6.27620
                      -0.77677                     -55.60900                      -6.39336
                      -0.79334                     -56.84226                      -6.50894
                      -0.81010                     -58.07527                      -6.62324
                      -0.82713                     -59.30777                      -6.73671
                      -0.84442                     -60.53924                      -6.84946
                      -0.84820                     -61.77665                      -6.89042
        </DataArray>
        <DataArray type="Float32" Name="OrientationX" NumberOfComponents="3" format="ascii">
                       0.99400                       0.02349                       0.10678
                       0.99398                       0.02457                       0.10681
                       0.99414                       0.02852                       0.10425
                       0.99475                       0.03334                       0.09679
                       0.99573                       0.03583                       0.08502
                       0.99690                       0.03607                       0.06992
                       0.99803                       0.03419                       0.05252
                       0.99893                       0.03121                       0.03404
                       0.99939                       0.03095                       0.01599
                       0.99944                       0.03348                      -0.00070
                       0.99927                       0.03492                      -0.01551
                       0.99903                       0.03364                      -0.02833
                       0.99873                       0.03079                      -0.03999
                       0.99826                       0.02861                      -0.05153
                       0.99768                       0.02681                      -0.06261
                       0.99701                       0.02466                      -0.07321
                       0.99629                       0.02204                      -0.08319
                       0.99554                       0.01941                      -0.09229
                       0.99479                       0.01783                      -0.10036
                       0.99406                       0.01754                      -0.10742
                       0.99334                       0.01827                      -0.11377
                       0.99263                       0.01887                      -0.11970
                       0.99194                       0.01804                      -0.12541
                       0.99126                       0.01589                      -0.13093
                       0.99059                       0.01244                      -0.13630
                       0.98990                       0.00819                      -0.14153
                       0.98922                       0.00548                      -0.14633
                       0.98859                       0.00465                      -0.15057
                       0.98799                       0.00409                      -0.15449
                       0.98739                       0.00259                      -0.15827
                       0.98677                      -0.00043                      -0.16211
                       0.98610                      -0.00487                      -0.16607
                       0.98535                      -0.01058                      -0.17022
                       0.98447                      -0.01727                      -0.17469
                       0.98349                      -0.02332                      -0.17945
                       0.98240                      -0.02781                      -0.18469
                       0.98112                      -0.03213                      -0.19069
                       0.97976                      -0.03687                      -0.19676
                       0.97837                      -0.04204                      -0.20255
                       0.97703                      -0.04778                      -0.20766
                       0.97584                      -0.05372                      -0.21176
                       0.97507                      -0.05973                      -0.21373
                       0.97455                      -0.06514                      -0.21449
                       0.97420                      -0.06985                      -0.21463
                       0.97396                      -0.07437                      -0.21419
                       0.97385                      -0.07861                      -0.21317
                       0.97391                      -0.08237                      -0.21147
                       0.97417                      -0.08585                      -0.20886
                       0.97468                      -0.08830                      -0.20541
                       0.97530                      -0.09131                      -0.20115
        </DataArray>
        <DataArray type="Float32" Name="OrientationY" NumberOfComponents="3" format="ascii">
                       0.10263                       0.13638                      -0.98533
                       0.10251                       0.13655                      -0.98531
                       0.09940                       0.13736                      -0.98552
                       0.09134                       0.13805                      -0.98621
                       0.07934                       0.13781                      -0.98728
                       0.06439                       0.13679                      -0.98851
                       0.04745                       0.13521                      -0.98968
                       0.02959                       0.13345                      -0.99061
                       0.01176                       0.13234                      -0.99114
                      -0.00511                       0.13177                      -0.99127
                      -0.01997                       0.13110                      -0.99117
                      -0.03248                       0.13014                      -0.99096
                      -0.04365                       0.12910                      -0.99067
                      -0.05479                       0.12821                      -0.99023
                      -0.06553                       0.12744                      -0.98968
                      -0.07576                       0.12670                      -0.98904
                      -0.08532                       0.12598                      -0.98836
                      -0.09400                       0.12535                      -0.98765
                      -0.10181                       0.12486                      -0.98694
                      -0.10878                       0.12449                      -0.98624
                      -0.11517                       0.12418                      -0.98555
                      -0.12112                       0.12387                      -0.98488
                      -0.12669                       0.12349                      -0.98423
                      -0.13189                       0.12306                      -0.98360
                      -0.13680                       0.12261                      -0.98298
                      -0.14146                       0.12214                      -0.98238
                      -0.14590                       0.12172                      -0.98178
                      -0.15002                       0.12134                      -0.98121
                      -0.15384                       0.12093                      -0.98067
                      -0.15743                       0.12048                      -0.98015
                      -0.16089                       0.11998                      -0.97965
                      -0.16431                       0.11946                      -0.97915
                      -0.16778                       0.11893                      -0.97862
                      -0.17147                       0.11839                      -0.97805
                      -0.17554                       0.11785                      -0.97739
                      -0.18027                       0.11731                      -0.97660
                      -0.18579                       0.11678                      -0.97562
                      -0.19135                       0.11625                      -0.97461
                      -0.19659                       0.11573                      -0.97363
                      -0.20112                       0.11520                      -0.97277
                      -0.20464                       0.11465                      -0.97210
                      -0.20605                       0.11401                      -0.97188
                      -0.20633                       0.11332                      -0.97190
                      -0.20608                       0.11261                      -0.97204
                      -0.20528                       0.11192                      -0.97228
                      -0.20393                       0.11127                      -0.97264
                      -0.20194                       0.11067                      -0.97313
                      -0.19907                       0.11011                      -0.97378
                      -0.19545                       0.10962                      -0.97457
                      -0.19097                       0.10919                      -0.97551
        </DataArray>
        <DataArray type="Float32" Name="OrientationZ" NumberOfComponents="3" format="ascii">
                      -0.03771                       0.99038                       0.13315
                      -0.03880                       0.99033                       0.13321
                      -0.04243                       0.99011                       0.13372
                      -0.04624                       0.98986                       0.13428
                      -0.04709                       0.98981                       0.13438
                      -0.04522                       0.98994                       0.13405
                      -0.04094                       0.99023                       0.13332
                      -0.03546                       0.99056                       0.13238
                      -0.03279                       0.99072                       0.13189
                      -0.03310                       0.99071                       0.13187
                      -0.03258                       0.99075                       0.13170
                      -0.02965                       0.99092                       0.13111
                      -0.02534                       0.99115                       0.13028
                      -0.02172                       0.99133                       0.12956
                      -0.01856                       0.99148                       0.12890
                      -0.01511                       0.99164                       0.12818
                      -0.01130                       0.99179                       0.12740