<?xml version="1.0"?>
<VTKFile type="PolyData" version="0.1" byte_order="LittleEndian">
  <PolyData>
    <Piece NumberOfPoints="      3" NumberOfVerts="  0" NumberOfLines="      2"
           NumberOfStrips="  0" NumberOfPolys="      0">
      <Points>
        <DataArray type="Float32" NumberOfComponents="3" format="ascii">
                      17.62583                      -0.08361                     148.03130
                      17.62603                      -0.08363                     148.03629
                      17.62563                      -0.08359                     148.02630
        </DataArray>
      </Points>
      <PointData>
        <DataArray type="Float32" Name="TranslationalVelocity" NumberOfComponents="3" format="ascii">
                       1.46282                       0.06103                      -0.10297
                       1.46285                       0.06103                      -0.10297
                       1.46280                       0.06103                      -0.10297
        </DataArray>
        <DataArray type="Float32" Name="RotationalVelocity" NumberOfComponents="3" format="ascii">
                      -0.00039                       0.00475                       0.00013
                      -0.00039                       0.00475                       0.00013
                      -0.00039                       0.00475                       0.00013
        </DataArray>
        <DataArray type="Float32" Name="TranslationalAcceleration" NumberOfComponents="3" format="ascii">
                       0.14688                      -0.01830                       0.00262
                       0.14688                      -0.01830                       0.00262
                       0.14687                      -0.01830                       0.00262
        </DataArray>
        <DataArray type="Float32" Name="RotationalAcceleration" NumberOfComponents="3" format="ascii">
                       0.00010                       0.00102                      -0.00065
                       0.00010                       0.00102                      -0.00065
                       0.00010                       0.00102                      -0.00065
        </DataArray>
        <DataArray type="Float32" Name="OrientationX" NumberOfComponents="3" format="ascii">
                       0.99923                       0.00399                      -0.03908
                       0.99923                       0.00399                      -0.03908
                       0.99923                       0.00399                      -0.03908
        </DataArray>
        <DataArray type="Float32" Name="OrientationY" NumberOfComponents="3" format="ascii">
                      -0.00386                       0.99999                       0.00325
                      -0.00386                       0.99999                       0.00325
                      -0.00386                       0.99999                       0.00325
        </DataArray>
        <DataArray type="Float32" Name="OrientationZ" NumberOfComponents="3" format="ascii">
                       0.03909                      -0.00310                       0.99923
                       0.03909                      -0.00310                       0.99923
                       0.03909                      -0.00310                       0.99923
        </DataArray>
      </PointData>
      <Lines>
        <DataArray type="Int32" Name="connectivity" format="ascii">
      0      1
      2      0
        </DataArray>
        <DataArray type="Int32" Name="offsets" format="ascii">
      2
      4
        </DataArray>
      </Lines>
    </Piece>
  </PolyData>
</VTKFile>
