<?xml version="1.0"?>
<VTKFile type="PolyData" version="0.1" byte_order="LittleEndian">
  <PolyData>
    <Piece NumberOfPoints="     50" NumberOfVerts="  0" NumberOfLines="     49"
           NumberOfStrips="  0" NumberOfPolys="      0">
      <Points>
        <DataArray type="Float32" NumberOfComponents="3" format="ascii">
                      18.74781                       2.82716                     148.80920
                      18.48191                       5.08895                     148.08685
                      18.21683                       7.36061                     147.39908
                      17.94970                       9.65154                     146.78040
                      17.68431                      11.95565                     146.20758
                      17.42415                      14.26713                     145.65859
                      17.17172                      16.57941                     145.10937
                      16.92723                      18.88305                     144.52683
                      16.68894                      21.17381                     143.89713
                      16.45113                      23.46628                     143.27384
                      16.21238                      25.75839                     142.65004
                      15.97469                      28.04605                     142.01068
                      15.74243                      30.32422                     141.33658
                      15.51719                      32.59690                     140.64140
                      15.29990                      34.87110                     139.94910
                      15.09132                      37.14696                     139.25996
                      14.89186                      39.42394                     138.57213
                      14.70257                      41.70206                     137.88544
                      14.52159                      43.98067                     137.19824
                      14.34478                      46.25935                     136.51016
                      14.16943                      48.53804                     135.82128
                      13.99311                      50.81696                     135.13240
                      13.81881                      53.09660                     134.44407
                      13.65041                      55.37735                     133.75639
                      13.49025                      57.65918                     133.06866
                      13.34183                      59.94219                     132.38048
                      13.20526                      62.22640                     131.69193
                      13.07321                      64.51207                     131.00416
                      12.94385                      66.79900                     130.31595
                      12.81756                      69.08758                     129.62769
                      12.69845                      71.37778                     128.93842
                      12.58963                      73.66953                     128.24740
                      12.49474                      75.96252                     127.55346
                      12.41622                      78.25651                     126.85584
                      12.35651                      80.55119                     126.15398
                      12.31050                      82.84678                     125.44817
                      12.27640                      85.14339                     124.73844
                      12.25576                      87.44071                     124.02399
                      12.24912                      89.73852                     123.30434
                      12.25794                      92.03640                     122.57890
                      12.28332                      94.33426                     121.84822
                      12.32486                      96.63201                     121.11273
                      12.38244                      98.92945                     120.37271
                      12.45281                     101.22654                     119.62820
                      12.53560                     103.52292                     118.87919
                      12.62997                     105.81823                     118.12593
                      12.73511                     108.11218                     117.36912
                      12.84919                     110.40463                     116.60989
                      12.97200                     112.69479                     115.84849
                      13.07657                     114.94060                     114.95255
        </DataArray>
      </Points>
      <PointData>
        <DataArray type="Float32" Name="TranslationalVelocity" NumberOfComponents="3" format="ascii">
                       0.69411                       0.81167                       2.58886
                       0.94835                       1.34885                       4.17724
                       1.20385                       1.86164                       5.77251
                       1.46188                       2.32617                       7.38123
                       1.72170                       2.75830                       8.99907
                       1.98257                       3.17309                      10.62192
                       2.24367                       3.58715                      12.24515
                       2.50380                       4.02366                      13.86209
                       2.76244                       4.49251                      15.46978
                       3.02151                       4.95677                      17.07848
                       3.28075                       5.42147                      18.68672
                       3.53965                       5.89693                      20.29162
                       3.79756                       6.39607                      21.88964
                       4.05502                       6.90915                      23.48357
                       4.31293                       7.41926                      25.07833
                       4.57134                       7.92611                      26.67400
                       4.83020                       8.43096                      28.27021
                       5.08953                       8.93381                      29.86698
                       5.34926                       9.43601                      31.46385
                       5.60937                       9.93833                      33.06056
                       5.86989                      10.44100                      34.65706
                       6.13087                      10.94375                      36.25350
                       6.39241                      11.44586                      37.85024
                       6.65457                      11.94681                      39.44751
                       6.91741                      12.44683                      41.04528
                       7.18094                      12.94578                      42.64359
                       7.44523                      13.44359                      44.24246
                       7.71036                      13.94032                      45.84207
                       7.97633                      14.43702                      47.44228
                       8.24324                      14.93340                      49.04334
                       8.51114                      15.42964                      50.64519
                       8.78006                      15.92589                      52.24777
                       9.05000                      16.42253                      53.85082
                       9.32099                      16.91980                      55.45416
                       9.59302                      17.41779                      57.05753
                       9.86618                      17.91687                      58.66110
                      10.14050                      18.41725                      60.26492
                      10.41599                      18.91928                      61.86876
                      10.69265                      19.42321                      63.47245
                      10.97045                      19.92927                      65.07569
                      11.24940                      20.43690                      66.67840
                      11.52950                      20.94586                      68.28053
                      11.81073                      21.45592                      69.88196
                      12.09307                      21.96745                      71.48267
                      12.37645                      22.48048                      73.08245
                      12.66080                      22.99491                      74.68110
                      12.94602                      23.51035                      76.27846
                      13.23203                      24.02621                      77.87451
                      13.51863                      24.54233                      79.46879
                      13.80036                      25.15430                      81.03208
        </DataArray>
        <DataArray type="Float32" Name="RotationalVelocity" NumberOfComponents="3" format="ascii">
                       0.70175                       0.00444                      -0.11383
                       0.70174                       0.00444                      -0.11382
                       0.70171                       0.00444                      -0.11382
                       0.70167                       0.00442                      -0.11384
                       0.70162                       0.00441                      -0.11388
                       0.70156                       0.00438                      -0.11393
                       0.70149                       0.00436                      -0.11399
                       0.70141                       0.00433                      -0.11406
                       0.70133                       0.00430                      -0.11413
                       0.70124                       0.00426                      -0.11421
                       0.70116                       0.00423                      -0.11430
                       0.70107                       0.00419                      -0.11440
                       0.70098                       0.00415                      -0.11449
                       0.70089                       0.00411                      -0.11460
                       0.70080                       0.00407                      -0.11471
                       0.70072                       0.00402                      -0.11483
                       0.70063                       0.00398                      -0.11495
                       0.70054                       0.00393                      -0.11509
                       0.70046                       0.00387                      -0.11523
                       0.70037                       0.00382                      -0.11539
                       0.70029                       0.00376                      -0.11555
                       0.70020                       0.00370                      -0.11573
                       0.70011                       0.00363                      -0.11592
                       0.70002                       0.00356                      -0.11613
                       0.69993                       0.00349                      -0.11635
                       0.69983                       0.00341                      -0.11658
                       0.69973                       0.00333                      -0.11683
                       0.69962                       0.00324                      -0.11710
                       0.69951                       0.00314                      -0.11739
                       0.69939                       0.00304                      -0.11769
                       0.69927                       0.00294                      -0.11800
                       0.69913                       0.00282                      -0.11834
                       0.69899                       0.00271                      -0.11869
                       0.69885                       0.00258                      -0.11906
                       0.69870                       0.00246                      -0.11944
                       0.69853                       0.00232                      -0.11983
                       0.69837                       0.00219                      -0.12024
                       0.69819                       0.00205                      -0.12065
                       0.69802                       0.00190                      -0.12107
                       0.69783                       0.00176                      -0.12150
                       0.69765                       0.00162                      -0.12193
                       0.69747                       0.00147                      -0.12236
                       0.69729                       0.00133                      -0.12278
                       0.69712                       0.00119                      -0.12320
                       0.69696                       0.00105                      -0.12360
                       0.69682                       0.00093                      -0.12399
                       0.69669                       0.00081                      -0.12435
                       0.69659                       0.00070                      -0.12469
                       0.69652                       0.00060                      -0.12499
                       0.69648                       0.00052                      -0.12526
        </DataArray>
        <DataArray type="Float32" Name="TranslationalAcceleration" NumberOfComponents="3" format="ascii">
                       0.22348                      -1.88628                       0.58498
                       0.29083                      -3.02602                       0.97313
                       0.35548                      -4.17085                       1.34434
                       0.41480                      -5.32565                       1.68200
                       0.47056                      -6.48716                       1.99731
                       0.52442                      -7.65226                       2.30089
                       0.57823                      -8.81746                       2.60442
                       0.63460                      -9.97773                       2.92414
                       0.69462                     -11.13079                       3.26699
                       0.75424                     -12.28438                       3.60717
                       0.81401                     -13.43738                       3.94819
                       0.87511                     -14.58762                       4.29727
                       0.93899                     -15.73237                       4.66341
                       1.00458                     -16.87375                       5.03978
                       1.07000                     -18.01548                       5.41456
                       1.13523                     -19.15765                       5.78753
                       1.20042                     -20.29999                       6.15955
                       1.26555                     -21.44252                       6.53060
                       1.33080                     -22.58490                       6.90162
                       1.39623                     -23.72697                       7.27312
                       1.46187                     -24.86868                       7.64525
                       1.52768                     -26.01018                       8.01782
                       1.59358                     -27.15172                       8.39032
                       1.65949                     -28.29349                       8.76237
                       1.72542                     -29.43549                       9.13411
                       1.79134                     -30.57773                       9.50545
                       1.85724                     -31.72025                       9.87634
                       1.92310                     -32.86317                      10.24684
                       1.98903                     -34.00639                      10.61770
                       2.05498                     -35.15008                      10.98871
                       2.12095                     -36.29421                      11.36002
                       2.18694                     -37.43872                      11.73173
                       2.25297                     -38.58342                      12.10412
                       2.31904                     -39.72816                      12.47735
                       2.38515                     -40.87276                      12.85150
                       2.45133                     -42.01732                      13.22684
                       2.51759                     -43.16188                      13.60354
                       2.58394                     -44.30625                      13.98183
                       2.65040                     -45.45029                      14.36188
                       2.71698                     -46.59379                      14.74384
                       2.78360                     -47.73670                      15.12732
                       2.85022                     -48.87898                      15.51211
                       2.91679                     -50.02056                      15.89803
                       2.98334                     -51.16145                      16.28530
                       3.04987                     -52.30151                      16.67389
                       3.11634                     -53.44062                      17.06367
                       3.18271                     -54.57872                      17.45426
                       3.24889                     -55.71587                      17.84518
                       3.31486                     -56.85176                      18.23617
                       3.39226                     -57.96341                      18.69316
        </DataArray>
        <DataArray type="Float32" Name="OrientationX" NumberOfComponents="3" format="ascii">
                       0.98709                       0.13486                       0.08643
                       0.98699                       0.13586                       0.08602
                       0.98696                       0.13846                       0.08209
                       0.98744                       0.13993                       0.07333
                       0.98858                       0.13758                       0.06154
                       0.99012                       0.13186                       0.04761
                       0.99184                       0.12329                       0.03240
                       0.99343                       0.11325                       0.01665
                       0.99438                       0.10585                       0.00021
                       0.99470                       0.10151                      -0.01610
                       0.99483                       0.09690                      -0.03026
                       0.99502                       0.09060                      -0.04149
                       0.99522                       0.08331                      -0.05104
                       0.99520                       0.07669                      -0.06074
                       0.99503                       0.07058                      -0.07018
                       0.99479                       0.06433                      -0.07903
                       0.99451                       0.05790                      -0.08713
                       0.99418                       0.05181                      -0.09442
                       0.99375                       0.04709                      -0.10118
                       0.99323                       0.04395                      -0.10754
                       0.99263                       0.04202                      -0.11365
                       0.99204                       0.04015                      -0.11932
                       0.99156                       0.03707                      -0.12422
                       0.99118                       0.03284                      -0.12842
                       0.99087                       0.02750                      -0.13196
                       0.99061                       0.02147                      -0.13505
                       0.99024                       0.01702                      -0.13836
                       0.98977                       0.01452                      -0.14192
                       0.98931                       0.01240                      -0.14528
                       0.98892                       0.00946                      -0.14815
                       0.98860                       0.00512                      -0.15045
                       0.98833                      -0.00057                      -0.15231
                       0.98807                      -0.00751                      -0.15383
                       0.98775                      -0.01547                      -0.15525
                       0.98730                      -0.02298                      -0.15718
                       0.98665                      -0.02926                      -0.16019
                       0.98582                      -0.03570                      -0.16396
                       0.98493                      -0.04256                      -0.16763
                       0.98404                      -0.04970                      -0.17086
                       0.98322                      -0.05709                      -0.17325
                       0.98254                      -0.06424                      -0.17463
                       0.98221                      -0.07059                      -0.17403
                       0.98207                      -0.07588                      -0.17256
                       0.98203                      -0.08027                      -0.17080
                       0.98208                      -0.08425                      -0.16859
                       0.98222                      -0.08773                      -0.16596
                       0.98248                      -0.09049                      -0.16290
                       0.98291                      -0.09263                      -0.15911
                       0.98349                      -0.09346                      -0.15497
                       0.98418                      -0.09447                      -0.14986
        </DataArray>
        <DataArray type="Float32" Name="OrientationY" NumberOfComponents="3" format="ascii">
                       0.11951                      -0.26085                      -0.95795
                       0.11938                      -0.26069                      -0.95801
                       0.11623                      -0.26026                      -0.95852
                       0.10816                      -0.26048                      -0.95940
                       0.09624                      -0.26198                      -0.96026
                       0.08142                      -0.26446                      -0.96095
                       0.06467                      -0.26759                      -0.96136
                       0.04699                      -0.27084                      -0.96148
                       0.02930                      -0.27334                      -0.96147
                       0.01251                      -0.27510                      -0.96133
                      -0.00227                      -0.27674                      -0.96094
                      -0.01469                      -0.27842                      -0.96035
                      -0.02577                      -0.28005                      -0.95964
                      -0.03683                      -0.28148                      -0.95886
                      -0.04752                      -0.28274                      -0.95802
                      -0.05768                      -0.28389                      -0.95712
                      -0.06719                      -0.28495                      -0.95619
                      -0.07582                      -0.28586                      -0.95527
                      -0.08360                      -0.28659                      -0.95440
                      -0.09054                      -0.28714                      -0.95360
                      -0.09692                      -0.28760                      -0.95283
                      -0.10285                      -0.28804                      -0.95208
                      -0.10840                      -0.28853                      -0.95132
                      -0.11358                      -0.28904                      -0.95056
                      -0.11846                      -0.28956                      -0.94980
                      -0.12310                      -0.29008                      -0.94905
                      -0.12751                      -0.29054                      -0.94833
                      -0.13161                      -0.29095                      -0.94764
                      -0.13541                      -0.29138                      -0.94697
                      -0.13897                      -0.29185                      -0.94632
                      -0.14240                      -0.29234                      -0.94565
                      -0.14580                      -0.29286                      -0.94497
                      -0.14924                      -0.29339                      -0.94427
                      -0.15290                      -0.29392                      -0.94352
                      -0.15693                      -0.29443                      -0.94270
                      -0.16164                      -0.29495                      -0.94174
                      -0.16714                      -0.29544                      -0.94063
                      -0.17268                      -0.29591                      -0.93948
                      -0.17790                      -0.29637                      -0.93836
                      -0.18240                      -0.29684                      -0.93735
                      -0.18589                      -0.29732                      -0.93651
                      -0.18726                      -0.29792                      -0.93605
                      -0.18750                      -0.29858                      -0.93579
                      -0.18719                      -0.29926                      -0.93563
                      -0.18634                      -0.29993                      -0.93558
                      -0.18494                      -0.30057                      -0.93566
                      -0.18291                      -0.30118                      -0.93586
                      -0.18000                      -0.30175                      -0.93624
                      -0.17633                      -0.30226                      -0.93678
                      -0.17180                      -0.30271                      -0.93747
        </DataArray>
        <DataArray type="Float32" Name="OrientationZ" NumberOfComponents="3" format="ascii">
                      -0.10665                       0.95591                      -0.27360
                      -0.10773                       0.95581                      -0.27352
                      -0.11135                       0.95556                      -0.27296
                      -0.11515                       0.95529                      -0.27234
                      -0.11599                       0.95522                      -0.27223
                      -0.11412                       0.95534                      -0.27259
                      -0.10985                       0.95561                      -0.27338
                      -0.10438                       0.95594                      -0.27438
                      -0.10171                       0.95608                      -0.27490
                      -0.10202                       0.95604                      -0.27492
                      -0.10149                       0.95605                      -0.27509
                      -0.09856                       0.95618                      -0.27571
                      -0.09424                       0.95636                      -0.27657
                      -0.09063                       0.95650                      -0.27731
                      -0.08746                       0.95660                      -0.27798
                      -0.08401                       0.95670                      -0.27870
                      -0.08019                       0.95679                      -0.27950