<?xml version="1.0"?>
<VTKFile type="PolyData" version="0.1" byte_order="LittleEndian">
  <PolyData>
    <Piece NumberOfPoints="      3" NumberOfVerts="  0" NumberOfLines="      2"
           NumberOfStrips="  0" NumberOfPolys="      0">
      <Points>
        <DataArray type="Float32" NumberOfComponents="3" format="ascii">
                      31.78289                      -0.77387                     147.76891
                      31.78327                      -0.77391                     147.77389
                      31.78251                      -0.77383                     147.76392
        </DataArray>
      </Points>
      <PointData>
        <DataArray type="Float32" Name="TranslationalVelocity" NumberOfComponents="3" format="ascii">
                      -0.19146                       0.07453                      -0.04993
                      -0.19146                       0.07453                      -0.04993
                      -0.19146                       0.07453                      -0.04993
        </DataArray>
        <DataArray type="Float32" Name="RotationalVelocity" NumberOfComponents="3" format="ascii">
                      -0.00040                       0.00019                       0.00043
                      -0.00040                       0.00019                       0.00043
                      -0.00040                       0.00019                       0.00043
        </DataArray>
        <DataArray type="Float32" Name="TranslationalAcceleration" NumberOfComponents="3" format="ascii">
                      -0.00841                       0.01285                       0.00235
                      -0.00841                       0.01285                       0.00235
                      -0.00841                       0.01285                       0.00235
        </DataArray>
        <DataArray type="Float32" Name="RotationalAcceleration" NumberOfComponents="3" format="ascii">
                      -0.00003                      -0.00058                       0.00019
                      -0.00003                      -0.00058                       0.00019
                      -0.00003                      -0.00058                       0.00019
        </DataArray>
        <DataArray type="Float32" Name="OrientationX" NumberOfComponents="3" format="ascii">
                       0.99714                       0.00415                      -0.07544
                       0.99714                       0.00415                      -0.07544
                       0.99714                       0.00415                      -0.07544
        </DataArray>
        <DataArray type="Float32" Name="OrientationY" NumberOfComponents="3" format="ascii">
                      -0.00352                       0.99996                       0.00850
                      -0.00352                       0.99996                       0.00850
                      -0.00352                       0.99996                       0.00850
        </DataArray>
        <DataArray type="Float32" Name="OrientationZ" NumberOfComponents="3" format="ascii">
                       0.07547                      -0.00821                       0.99711
                       0.07547                      -0.00821                       0.99711
                       0.07547                      -0.00821                       0.99711
        </DataArray>
      </PointData>
      <Lines>
        <DataArray type="Int32" Name="connectivity" format="ascii">
      0      1
      2      0
        </DataArray>
        <DataArray type="Int32" Name="offsets" format="ascii">
      2
      4
        </DataArray>
      </Lines>
    </Piece>
  </PolyData>
</VTKFile>
