<?xml version="1.0"?>
<VTKFile type="PolyData" version="0.1" byte_order="LittleEndian">
  <PolyData>
    <Piece NumberOfPoints="      3" NumberOfVerts="  0" NumberOfLines="      2"
           NumberOfStrips="  0" NumberOfPolys="      0">
      <Points>
        <DataArray type="Float32" NumberOfComponents="3" format="ascii">
                      36.48271                      -0.67344                     147.56091
                      36.48307                      -0.67348                     147.56590
                      36.48235                      -0.67340                     147.55593
        </DataArray>
      </Points>
      <PointData>
        <DataArray type="Float32" Name="TranslationalVelocity" NumberOfComponents="3" format="ascii">
                      -0.21770                      -0.09778                      -0.03087
                      -0.21770                      -0.09778                      -0.03087
                      -0.21770                      -0.09778                      -0.03087
        </DataArray>
        <DataArray type="Float32" Name="RotationalVelocity" NumberOfComponents="3" format="ascii">
                       0.00062                      -0.00025                      -0.00063
                       0.00062                      -0.00025                      -0.00063
                       0.00062                      -0.00025                      -0.00063
        </DataArray>
        <DataArray type="Float32" Name="TranslationalAcceleration" NumberOfComponents="3" format="ascii">
                       0.01595                       0.01738                       0.01291
                       0.01595                       0.01738                       0.01291
                       0.01594                       0.01738                       0.01292
        </DataArray>
        <DataArray type="Float32" Name="RotationalAcceleration" NumberOfComponents="3" format="ascii">
                      -0.00011                       0.00084                       0.00012
                      -0.00011                       0.00084                       0.00012
                      -0.00011                       0.00084                       0.00012
        </DataArray>
        <DataArray type="Float32" Name="OrientationX" NumberOfComponents="3" format="ascii">
                       0.99739                       0.00521                      -0.07201
                       0.99739                       0.00521                      -0.07201
                       0.99739                       0.00521                      -0.07201
        </DataArray>
        <DataArray type="Float32" Name="OrientationY" NumberOfComponents="3" format="ascii">
                      -0.00460                       0.99995                       0.00860
                      -0.00460                       0.99995                       0.00860
                      -0.00460                       0.99995                       0.00860
        </DataArray>
        <DataArray type="Float32" Name="OrientationZ" NumberOfComponents="3" format="ascii">
                       0.07205                      -0.00825                       0.99737
                       0.07205                      -0.00825                       0.99737
                       0.07205                      -0.00825                       0.99737
        </DataArray>
      </PointData>
      <Lines>
        <DataArray type="Int32" Name="connectivity" format="ascii">
      0      1
      2      0
        </DataArray>
        <DataArray type="Int32" Name="offsets" format="ascii">
      2
      4
        </DataArray>
      </Lines>
    </Piece>
  </PolyData>
</VTKFile>
