<?xml version="1.0"?>
<VTKFile type="PolyData" version="0.1" byte_order="LittleEndian">
  <PolyData>
    <Piece NumberOfPoints="      3" NumberOfVerts="  0" NumberOfLines="      2"
           NumberOfStrips="  0" NumberOfPolys="      0">
      <Points>
        <DataArray type="Float32" NumberOfComponents="3" format="ascii">
                      29.12680                      -0.60898                     147.61088
                      29.12717                      -0.60901                     147.61587
                      29.12643                      -0.60894                     147.60589
        </DataArray>
      </Points>
      <PointData>
        <DataArray type="Float32" Name="TranslationalVelocity" NumberOfComponents="3" format="ascii">
                       0.21927                       0.08444                       0.01970
                       0.21927                       0.08444                       0.01970
                       0.21927                       0.08444                       0.01970
        </DataArray>
        <DataArray type="Float32" Name="RotationalVelocity" NumberOfComponents="3" format="ascii">
                      -0.00066                      -0.00002                      -0.00012
                      -0.00066                      -0.00002                      -0.00012
                      -0.00066                      -0.00002                      -0.00012
        </DataArray>
        <DataArray type="Float32" Name="TranslationalAcceleration" NumberOfComponents="3" format="ascii">
                       0.00861                       0.01259                       0.01405
                       0.00861                       0.01259                       0.01405
                       0.00861                       0.01259                       0.01405
        </DataArray>
        <DataArray type="Float32" Name="RotationalAcceleration" NumberOfComponents="3" format="ascii">
                       0.00001                       0.00054                       0.00051
                       0.00001                       0.00054                       0.00051
                       0.00001                       0.00054                       0.00051
        </DataArray>
        <DataArray type="Float32" Name="OrientationX" NumberOfComponents="3" format="ascii">
                       0.99723                       0.00666                      -0.07406
                       0.99723                       0.00666                      -0.07406
                       0.99723                       0.00666                      -0.07406
        </DataArray>
        <DataArray type="Float32" Name="OrientationY" NumberOfComponents="3" format="ascii">
                      -0.00609                       0.99995                       0.00797
                      -0.00609                       0.99995                       0.00797
                      -0.00609                       0.99995                       0.00797
        </DataArray>
        <DataArray type="Float32" Name="OrientationZ" NumberOfComponents="3" format="ascii">
                       0.07411                      -0.00750                       0.99722
                       0.07411                      -0.00750                       0.99722
                       0.07411                      -0.00750                       0.99722
        </DataArray>
      </PointData>
      <Lines>
        <DataArray type="Int32" Name="connectivity" format="ascii">
      0      1
      2      0
        </DataArray>
        <DataArray type="Int32" Name="offsets" format="ascii">
      2
      4
        </DataArray>
      </Lines>
    </Piece>
  </PolyData>
</VTKFile>
