<?xml version="1.0"?>
<VTKFile type="PolyData" version="0.1" byte_order="LittleEndian">
  <PolyData>
    <Piece NumberOfPoints="     50" NumberOfVerts="  0" NumberOfLines="     49"
           NumberOfStrips="  0" NumberOfPolys="      0">
      <Points>
        <DataArray type="Float32" NumberOfComponents="3" format="ascii">
                      22.09060                      -4.02206                     148.69119
                      21.84584                      -6.29107                     147.98421
                      21.59004                      -8.54755                     147.24480
                      21.30881                     -10.77896                     146.44208
                      21.01355                     -12.99336                     145.59548
                      20.71505                     -15.19841                     144.72354
                      20.42387                     -17.40255                     143.84712
                      20.15149                     -19.61758                     142.99626
                      19.90108                     -21.84847                     142.18413
                      19.64924                     -24.07604                     141.36376
                      19.39710                     -26.30285                     140.54194
                      19.15172                     -28.53433                     139.73164
                      18.92379                     -30.77733                     138.94875
                      18.71024                     -33.02691                     138.18026
                      18.50394                     -35.27437                     137.40393
                      18.30557                     -37.51956                     136.61929
                      18.11622                     -39.76313                     135.82797
                      17.93699                     -42.00506                     135.02983
                      17.76676                     -44.24606                     134.22712
                      17.60180                     -46.48651                     133.42168
                      17.43955                     -48.72665                     132.61436
                      17.27745                     -50.96649                     131.80521
                      17.11814                     -53.20575                     130.99267
                      16.96519                     -55.44422                     130.17530
                      16.82103                     -57.68201                     129.35292
                      16.68907                     -59.91899                     128.52476
                      16.56933                     -62.15510                     127.69069
                      16.45450                     -64.39071                     126.85191
                      16.34317                     -66.62661                     126.00994
                      16.23551                     -68.86281                     125.16412
                      16.13567                     -71.09930                     124.31388
                      16.04673                     -73.33606                     123.45881
                      15.97248                     -75.57304                     122.59882
                      15.91542                     -77.81014                     121.73380
                      15.87798                     -80.04711                     120.86359
                      15.85516                     -82.28453                     119.98928
                      15.84516                     -84.52267                     119.11128
                      15.84968                     -86.76155                     118.22985
                      15.86932                     -89.00116                     117.34528
                      15.90562                     -91.24136                     116.45781
                      15.95940                     -93.48157                     115.56678
                      16.03008                     -95.72154                     114.67210
                      16.11742                     -97.96094                     113.77380
                      16.21829                    -100.20021                     112.87300
                      16.33231                    -102.43916                     111.97020
                      16.45861                    -104.67760                     111.06594
                      16.59617                    -106.91507                     110.16046
                      16.74294                    -109.15120                     109.25394
                      16.89869                    -111.38542                     108.34724
                      17.08334                    -113.66971                     107.57110
        </DataArray>
      </Points>
      <PointData>
        <DataArray type="Float32" Name="TranslationalVelocity" NumberOfComponents="3" format="ascii">
                      -0.51136                       1.06721                      -2.73605
                      -0.80974                       1.60976                      -4.37403
                      -1.10659                       2.17715                      -6.00285
                      -1.40040                       2.79354                      -7.61335
                      -1.69215                       3.44337                      -9.21132
                      -1.98280                       4.11182                     -10.80230
                      -2.27339                       4.78244                     -12.39239
                      -2.56535                       5.43203                     -13.99012
                      -2.85931                       6.05068                     -15.59905
                      -3.15297                       6.67534                     -17.20525
                      -3.44664                       7.30097                     -18.81056
                      -3.74100                       7.91728                     -20.41890
                      -4.03692                       8.51144                     -22.03527
                      -4.33380                       9.09324                     -23.65609
                      -4.63062                       9.67964                     -25.27505
                      -4.92737                      10.27090                     -26.89207
                      -5.22415                      10.86569                     -28.50761
                      -5.52097                      11.46397                     -30.12169
                      -5.81792                      12.06428                     -31.73481
                      -6.11505                      12.66577                     -33.34725
                      -6.41242                      13.26817                     -34.95917
                      -6.71001                      13.87178                     -36.57057
                      -7.00782                      14.47739                     -38.18127
                      -7.30582                      15.08556                     -39.79113
                      -7.60405                      15.69610                     -41.40024
                      -7.90248                      16.30910                     -43.00852
                      -8.20111                      16.92466                     -44.61594
                      -8.50000                      17.54288                     -46.22273
                      -8.79924                      18.16285                     -47.82943
                      -9.09885                      18.78501                     -49.43603
                      -9.39882                      19.40922                     -51.04256
                      -9.69915                      20.03536                     -52.64899
                      -9.99985                      20.66299                     -54.25530
                     -10.30090                      21.29184                     -55.86142
                     -10.60226                      21.92170                     -57.46717
                     -10.90400                      22.55244                     -59.07293
                     -11.20617                      23.18400                     -60.67889
                     -11.50876                      23.81596                     -62.28504
                     -11.81176                      24.44802                     -63.89140
                     -12.11515                      25.07980                     -65.49786
                     -12.41885                      25.71166                     -67.10402
                     -12.72282                      26.34374                     -68.70969
                     -13.02701                      26.97605                     -70.31466
                     -13.33145                      27.60820                     -71.91926
                     -13.63612                      28.23989                     -73.52337
                     -13.94095                      28.87085                     -75.12688
                     -14.24588                      29.50107                     -76.72953
                     -14.55083                      30.13069                     -78.33108
                     -14.85569                      30.75917                     -79.93123
                     -15.16666                      31.29025                     -81.56739
        </DataArray>
        <DataArray type="Float32" Name="RotationalVelocity" NumberOfComponents="3" format="ascii">
                       0.72229                       0.00364                      -0.13037
                       0.72227                       0.00364                      -0.13036
                       0.72223                       0.00364                      -0.13036
                       0.72216                       0.00365                      -0.13036
                       0.72206                       0.00367                      -0.13036
                       0.72195                       0.00368                      -0.13036
                       0.72183                       0.00370                      -0.13037
                       0.72169                       0.00373                      -0.13039
                       0.72155                       0.00376                      -0.13042
                       0.72140                       0.00379                      -0.13045
                       0.72124                       0.00382                      -0.13049
                       0.72109                       0.00386                      -0.13054
                       0.72093                       0.00390                      -0.13060
                       0.72078                       0.00394                      -0.13066
                       0.72063                       0.00398                      -0.13073
                       0.72049                       0.00403                      -0.13081
                       0.72034                       0.00407                      -0.13089
                       0.72020                       0.00412                      -0.13097
                       0.72007                       0.00417                      -0.13106
                       0.71993                       0.00422                      -0.13116
                       0.71980                       0.00427                      -0.13126
                       0.71967                       0.00432                      -0.13136
                       0.71955                       0.00437                      -0.13146
                       0.71942                       0.00443                      -0.13157
                       0.71930                       0.00448                      -0.13167
                       0.71917                       0.00453                      -0.13178
                       0.71905                       0.00459                      -0.13189
                       0.71892                       0.00464                      -0.13201
                       0.71879                       0.00470                      -0.13212
                       0.71865                       0.00475                      -0.13223
                       0.71852                       0.00481                      -0.13234
                       0.71838                       0.00487                      -0.13245
                       0.71823                       0.00492                      -0.13256
                       0.71808                       0.00498                      -0.13267
                       0.71793                       0.00504                      -0.13278
                       0.71777                       0.00510                      -0.13289
                       0.71761                       0.00515                      -0.13299
                       0.71745                       0.00521                      -0.13309
                       0.71729                       0.00527                      -0.13320
                       0.71712                       0.00532                      -0.13329
                       0.71696                       0.00537                      -0.13339
                       0.71681                       0.00543                      -0.13348
                       0.71666                       0.00548                      -0.13357
                       0.71652                       0.00552                      -0.13365
                       0.71640                       0.00556                      -0.13373
                       0.71629                       0.00560                      -0.13380
                       0.71620                       0.00564                      -0.13387
                       0.71614                       0.00567                      -0.13393
                       0.71611                       0.00569                      -0.13398
                       0.71611                       0.00570                      -0.13403
        </DataArray>
        <DataArray type="Float32" Name="TranslationalAcceleration" NumberOfComponents="3" format="ascii">
                       0.09722                       1.99757                       0.71208
                       0.16052                       3.22046                       1.10267
                       0.22713                       4.43648                       1.51132
                       0.30024                       5.63876                       1.95558
                       0.37780                       6.83151                       2.42427
                       0.45782                       8.01874                       2.90675
                       0.53812                       9.20491                       3.39119
                       0.61558                      10.39631                       3.86091
                       0.68888                      11.59560                       4.30880
                       0.76288                      12.79242                       4.76153
                       0.83688                      13.98813                       5.21549
                       0.90949                      15.18567                       5.66330
                       0.97899                      16.38877                       6.09569
                       1.04663                      17.59479                       6.51976
                       1.11466                      18.79902                       6.94769
                       1.18307                      20.00141                       7.37966
                       1.25167                      21.20233                       7.81469
                       1.32044                      22.40179                       8.25274
                       1.38917                      23.60018                       8.69274
                       1.45775                      24.79773                       9.13407
                       1.52612                      25.99458                       9.57651
                       1.59432                      27.19075                      10.02028
                       1.66245                      28.38611                      10.46592
                       1.73059                      29.58054                      10.91383
                       1.79872                      30.77411                      11.36386
                       1.86685                      31.96674                      11.81606
                       1.93499                      33.15842                      12.27050
                       2.00319                      34.34931                      12.72726
                       2.07130                      35.53983                      13.18570
                       2.13942                      36.72996                      13.64613
                       2.20753                      37.91968                      14.10847
                       2.27563                      39.10896                      14.57263
                       2.34367                      40.29774                      15.03830
                       2.41164                      41.48595                      15.50528
                       2.47954                      42.67341                      15.97344
                       2.54734                      43.86043                      16.44271
                       2.61507                      45.04712                      16.91304
                       2.68268                      46.23348                      17.38416
                       2.75016                      47.41948                      17.85584
                       2.81745                      48.60505                      18.32781
                       2.88465                      49.78988                      18.80032
                       2.95177                      50.97383                      19.27344
                       3.01884                      52.15676                      19.74717
                       3.08583                      53.33894                      20.22121
                       3.15272                      54.52033                      20.69528
                       3.21947                      55.70091                      21.16914
                       3.28611                      56.88054                      21.64271
                       3.35268                      58.05914                      22.11599
                       3.41911                      59.23657                      22.58848
                       3.47237                      60.44180                      22.99163
        </DataArray>
        <DataArray type="Float32" Name="OrientationX" NumberOfComponents="3" format="ascii">
                       0.89300                       0.05171                      -0.44707
                       0.89295                       0.05070                      -0.44730
                       0.89391                       0.04641                      -0.44584
                       0.89697                       0.04032                      -0.44024
                       0.90198                       0.03564                      -0.43031
                       0.90837                       0.03251                      -0.41690
                       0.91560                       0.03098                      -0.40089
                       0.92302                       0.03031                      -0.38356
                       0.92981                       0.02708                      -0.36705
                       0.93566                       0.02143                      -0.35225
                       0.94069                       0.01726                      -0.33884
                       0.94502                       0.01620                      -0.32661
                       0.94893                       0.01693                      -0.31504
                       0.95262                       0.01703                      -0.30369
                       0.95603                       0.01686                      -0.29278
                       0.95920                       0.01715                      -0.28219
                       0.96211                       0.01802                      -0.27205
                       0.96469                       0.01909                      -0.26270
                       0.96687                       0.01938                      -0.25452
                       0.96869                       0.01863                      -0.24757
                       0.97025                       0.01706                      -0.24152
                       0.97167                       0.01569                      -0.23584
                       0.97306                       0.01574                      -0.23002
                       0.97442                       0.01712                      -0.22409
                       0.97575                       0.01977                      -0.21800
                       0.97703                       0.02321                      -0.21184
                       0.97813                       0.02524                      -0.20645
                       0.97904                       0.02554                      -0.20205
                       0.97986                       0.02564                      -0.19803
                       0.98066                       0.02665                      -0.19392
                       0.98147                       0.02910                      -0.18940
                       0.98230                       0.03286                      -0.18442
                       0.98313                       0.03778                      -0.17894
                       0.98398                       0.04352                      -0.17290
                       0.98481                       0.04854                      -0.16673
                       0.98568                       0.05188                      -0.16048
                       0.98662                       0.05483                      -0.15353
                       0.98752                       0.05812                      -0.14639
                       0.98830                       0.06186                      -0.13941
                       0.98891                       0.06628                      -0.13292
                       0.98930                       0.07111                      -0.12737
                       0.98934                       0.07652                      -0.12387
                       0.98920                       0.08163                      -0.12171
                       0.98898                       0.08620                      -0.12036
                       0.98867                       0.09070                      -0.11962
                       0.98827                       0.09506                      -0.11952
                       0.98779                       0.09912                      -0.12023
                       0.98717                       0.10312                      -0.12190
                       0.98648                       0.10633                      -0.12469
                       0.98561                       0.11027                      -0.12809
        </DataArray>
        <DataArray type="Float32" Name="OrientationY" NumberOfComponents="3" format="ascii">
                       0.43692                      -0.33778                       0.83367
                       0.43678                      -0.33809                       0.83362
                       0.43389                      -0.33936                       0.83461
                       0.42650                      -0.34104                       0.83773
                       0.41557                      -0.34223                       0.84272
                       0.40193                      -0.34295                       0.84902
                       0.38643                      -0.34331                       0.85604
                       0.36997                      -0.34355                       0.86319
                       0.35338                      -0.34438                       0.86979
                       0.33754                      -0.34564                       0.87556
                       0.32350                      -0.34664                       0.88045
                       0.31164                      -0.34723                       0.88448
                       0.30102                      -0.34764                       0.88800
                       0.29037                      -0.34815                       0.89133
                       0.28005                      -0.34871                       0.89441
                       0.27020                      -0.34924                       0.89723
                       0.26097                      -0.34973                       0.89977
                       0.25255                      -0.35021                       0.90198
                       0.24496                      -0.35077                       0.90386
                       0.23816                      -0.35137                       0.90544
                       0.23191                      -0.35200                       0.90682
                       0.22609                      -0.35257                       0.90806
                       0.22064                      -0.35306                       0.90921
                       0.21555                      -0.35348                       0.91027
                       0.21075                      -0.35386                       0.91125
                       0.20619                      -0.35422                       0.91215
                       0.20185                      -0.35463                       0.91296
                       0.19782                      -0.35506                       0.91367
                       0.19408                      -0.35549                       0.91431
                       0.19059                      -0.35588                       0.91489
                       0.18722                      -0.35626                       0.91544
                       0.18390                      -0.35664                       0.91597
                       0.18053                      -0.35702                       0.91648
                       0.17695                      -0.35744                       0.91702
                       0.17299                      -0.35790                       0.91759
                       0.16837                      -0.35840                       0.91826
                       0.16296                      -0.35894                       0.91903
                       0.15750                      -0.35949                       0.91976
                       0.15237                      -0.36004                       0.92041
                       0.14795                      -0.36056                       0.92093
                       0.14456                      -0.36102                       0.92129
                       0.14330                      -0.36133                       0.92136
                       0.14319                      -0.36151                       0.92131
                       0.14363                      -0.36161                       0.92120
                       0.14461                      -0.36164                       0.92103
                       0.14615                      -0.36158                       0.92081
                       0.14831                      -0.36142                       0.92053
                       0.15135                      -0.36112                       0.92016
                       0.15512                      -0.36066                       0.91971
                       0.15974                      -0.36008                       0.91914
        </DataArray>
        <DataArray type="Float32" Name="OrientationZ" NumberOfComponents="3" format="ascii">
                      -0.10790                      -0.93980                      -0.32423
                      -0.10896                      -0.93975                      -0.32404
                      -0.11257                      -0.93951                      -0.32349
                      -0.11637                      -0.93919                      -0.32309
                      -0.11723                      -0.93894                      -0.32349
                      -0.11538                      -0.93879                      -0.32460
                      -0.11111                      -0.93871                      -0.32630
                      -0.10561                      -0.93865                      -0.32832
                      -0.10285                      -0.93844                      -0.32977
                      -0.10299                      -0.93812                      -0.33063
                      -0.10226                      -0.93784                      -0.33166
                      -0.09908                      -0.93764                      -0.33319
                      -0.09449                      -0.93748                      -0.33498
                      -0.09055                      -0.93728                      -0.33660
                      -0.08702                      -0.93708                      -0.33810
                      -0.08317                      -0.93688                      -0.33962
                      -0.07893                      -0.93668                      -0.34118