<?xml version="1.0"?>
<VTKFile type="PolyData" version="0.1" byte_order="LittleEndian">
  <PolyData>
    <Piece NumberOfPoints="     50" NumberOfVerts="  0" NumberOfLines="     49"
           NumberOfStrips="  0" NumberOfPolys="      0">
      <Points>
        <DataArray type="Float32" NumberOfComponents="3" format="ascii">
                      22.60681                      -2.54799                     153.59237
                      22.87655                      -3.44228                     155.79138
                      23.13907                      -4.36942                     157.97663
                      23.38362                      -5.36142                     160.13504
                      23.61933                      -6.39757                     162.27473
                      23.85475                      -7.45814                     164.40345
                      24.09797                      -8.52126                     166.52994
                      24.35694                      -9.55610                     168.66697
                      24.63327                     -10.54944                     170.82020
                      24.90912                     -11.55038                     172.96984
                      25.18484                     -12.55221                     175.11889
                      25.46595                     -13.54127                     177.27285
                      25.76121                     -14.50043                     179.43833
                      26.06904                     -15.44269                     181.60965
                      26.38491                     -16.39060                     183.77724
                      26.70951                     -17.34453                     185.94079
                      27.04373                     -18.30271                     188.10092
                      27.38867                     -19.26511                     190.25744
                      27.74298                     -20.22978                     192.41140
                      28.10279                     -21.19567                     194.56394
                      28.46551                     -22.16243                     196.71576
                      28.82870                     -23.13052                     198.86726
                      29.19515                     -24.10096                     201.01762
                      29.56856                     -25.07450                     203.16591
                      29.95138                     -26.05085                     205.31187
                      30.34703                     -27.03015                     207.45474
                      30.75560                     -28.01249                     209.59447
                      31.16989                     -28.99810                     211.73267
                      31.58844                     -29.98577                     213.87046
                      32.01157                     -30.97611                     216.00777
                      32.44345                     -31.96890                     218.14392
                      32.88718                     -32.96392                     220.27834
                      33.34650                     -33.96055                     222.41041
                      33.82385                     -34.95838                     224.53961
                      34.32165                     -35.95709                     226.66532
                      34.83499                     -36.95654                     228.78898
                      35.36214                     -37.95667                     230.91118
                      35.90472                     -38.95688                     233.03168
                      36.46333                     -39.95676                     235.15041
                      37.03940                     -40.95575                     237.26700
                      37.63376                     -41.95431                     239.38068
                      38.24586                     -42.95262                     241.49125
                      38.87540                     -43.95068                     243.59842
                      39.51922                     -44.94805                     245.70319
                      40.17684                     -45.94431                     247.80545
                      40.84726                     -46.93915                     249.90513
                      41.52935                     -47.93258                     252.00195
                      42.22095                     -48.92488                     254.09581
                      42.92155                     -49.91533                     256.18621
                      43.63629                     -50.77523                     258.33279
        </DataArray>
      </Points>
      <PointData>
        <DataArray type="Float32" Name="TranslationalVelocity" NumberOfComponents="3" format="ascii">
                      -0.09232                      -2.56859                      -1.10637
                      -0.19775                      -4.17261                      -1.74576
                      -0.30745                      -5.76604                      -2.40862
                      -0.42563                      -7.33832                      -3.11783
                      -0.54959                      -8.89652                      -3.85873
                      -0.67676                     -10.44735                      -4.61734
                      -0.80429                     -11.99816                      -5.37814
                      -0.92815                     -13.55916                      -6.11913
                      -1.04659                     -15.13466                      -6.83089
                      -1.16596                     -16.70826                      -7.54843
                      -1.28537                     -18.28214                      -8.26698
                      -1.40300                     -19.86098                      -8.97677
                      -1.51661                     -21.45063                      -9.66556
                      -1.62786                     -23.04682                     -10.34264
                      -1.73967                     -24.64209                     -11.02413
                      -1.85208                     -26.23629                     -11.71030
                      -1.96484                     -27.82995                     -12.39990
                      -2.07794                     -29.42306                     -13.09289
                      -2.19113                     -31.01616                     -13.78787
                      -2.30425                     -32.60956                     -14.48405
                      -2.41727                     -34.20341                     -15.18118
                      -2.53024                     -35.79768                     -15.87954
                      -2.64331                     -37.39211                     -16.57990
                      -2.75659                     -38.98652                     -17.28280
                      -2.87007                     -40.58100                     -17.98806
                      -2.98378                     -42.17548                     -18.69577
                      -3.09775                     -43.76990                     -19.40604
                      -3.21204                     -45.36453                     -20.11897
                      -3.32649                     -46.96001                     -20.83370
                      -3.44123                     -48.55635                     -21.55068
                      -3.55625                     -50.15360                     -22.26978
                      -3.67157                     -51.75179                     -22.99088
                      -3.78712                     -53.35098                     -23.71355
                      -3.90291                     -54.95114                     -24.43754
                      -4.01891                     -56.55215                     -25.16263
                      -4.13514                     -58.15446                     -25.88871
                      -4.25162                     -59.75831                     -26.61573
                      -4.36829                     -61.36376                     -27.34328
                      -4.48513                     -62.97086                     -28.07105
                      -4.60210                     -64.57952                     -28.79867
                      -4.71928                     -66.18932                     -29.52645
                      -4.83671                     -67.80002                     -30.25451
                      -4.95441                     -69.41135                     -30.98284
                      -5.07234                     -71.02360                     -31.71107
                      -5.19046                     -72.63655                     -32.43885
                      -5.30872                     -74.24994                     -33.16591
                      -5.42712                     -75.86332                     -33.89219
                      -5.54571                     -77.47617                     -34.61779
                      -5.66435                     -79.08789                     -35.34210
                      -5.76608                     -80.74231                     -35.97149
        </DataArray>
        <DataArray type="Float32" Name="RotationalVelocity" NumberOfComponents="3" format="ascii">
                       0.71366                       0.00426                      -0.12836
                       0.71372                       0.00426                      -0.12836
                       0.71382                       0.00426                      -0.12837
                       0.71399                       0.00425                      -0.12839
                       0.71421                       0.00425                      -0.12842
                       0.71446                       0.00425                      -0.12844
                       0.71475                       0.00426                      -0.12847
                       0.71506                       0.00427                      -0.12850
                       0.71539                       0.00430                      -0.12852
                       0.71573                       0.00434                      -0.12853
                       0.71607                       0.00439                      -0.12855
                       0.71641                       0.00445                      -0.12856
                       0.71675                       0.00452                      -0.12856
                       0.71709                       0.00460                      -0.12856
                       0.71742                       0.00469                      -0.12856
                       0.71773                       0.00478                      -0.12855
                       0.71804                       0.00487                      -0.12854
                       0.71834                       0.00497                      -0.12853
                       0.71863                       0.00506                      -0.12852
                       0.71891                       0.00516                      -0.12850
                       0.71918                       0.00526                      -0.12849
                       0.71944                       0.00535                      -0.12848
                       0.71970                       0.00544                      -0.12846
                       0.71996                       0.00552                      -0.12845
                       0.72021                       0.00560                      -0.12845
                       0.72047                       0.00566                      -0.12844
                       0.72072                       0.00572                      -0.12844
                       0.72098                       0.00577                      -0.12845
                       0.72125                       0.00581                      -0.12846
                       0.72153                       0.00584                      -0.12847
                       0.72181                       0.00586                      -0.12850
                       0.72211                       0.00587                      -0.12852
                       0.72242                       0.00587                      -0.12856
                       0.72273                       0.00585                      -0.12860
                       0.72306                       0.00582                      -0.12864
                       0.72340                       0.00579                      -0.12869
                       0.72375                       0.00574                      -0.12875
                       0.72410                       0.00568                      -0.12881
                       0.72446                       0.00562                      -0.12888
                       0.72482                       0.00554                      -0.12895
                       0.72518                       0.00546                      -0.12902
                       0.72553                       0.00537                      -0.12910
                       0.72586                       0.00528                      -0.12918
                       0.72617                       0.00518                      -0.12925
                       0.72645                       0.00507                      -0.12933
                       0.72669                       0.00497                      -0.12940
                       0.72688                       0.00486                      -0.12947
                       0.72700                       0.00475                      -0.12953
                       0.72705                       0.00465                      -0.12957
                       0.72703                       0.00456                      -0.12962
        </DataArray>
        <DataArray type="Float32" Name="TranslationalAcceleration" NumberOfComponents="3" format="ascii">
                      -0.34423                       0.86189                      -1.87407
                      -0.55222                       1.32891                      -3.01960
                      -0.75898                       1.81336                      -4.15770
                      -0.96329                       2.33220                      -5.28091
                      -1.16601                       2.87473                      -6.39432
                      -1.36797                       3.43069                      -7.50274
                      -1.57007                       3.98868                      -8.61146
                      -1.77355                       4.53250                      -9.72778
                      -1.97893                       5.05518                     -10.85483
                      -2.18430                       5.58259                     -11.98090
                      -2.38992                       6.11123                     -13.10757
                      -2.59639                       6.63385                     -14.23818
                      -2.80439                       7.14138                     -15.37694
                      -3.01343                       7.64067                     -16.52080
                      -3.22265                       8.14365                     -17.66439
                      -3.43202                       8.65050                     -18.80759
                      -3.64162                       9.16028                     -19.95076
                      -3.85145                       9.67295                     -21.09386
                      -4.06158                      10.18746                     -22.23729
                      -4.27204                      10.70322                     -23.38124
                      -4.48286                      11.22003                     -24.52582
                      -4.69403                      11.73810                     -25.67098
                      -4.90554                      12.25800                     -26.81655
                      -5.11735                      12.78012                     -27.96236
                      -5.32949                      13.30433                     -29.10849
                      -5.54194                      13.83071                     -30.25486
                      -5.75470                      14.35932                     -31.40145
                      -5.96780                      14.89029                     -32.54846
                      -6.18134                      15.42299                     -33.69635
                      -6.39530                      15.95775                     -34.84514
                      -6.60971                      16.49451                     -35.99489
                      -6.82456                      17.03320                     -37.14562
                      -7.03987                      17.57351                     -38.29738
                      -7.25561                      18.11527                     -39.45017
                      -7.47179                      18.65834                     -40.60390
                      -7.68845                      19.20266                     -41.75894
                      -7.90563                      19.74822                     -42.91547
                      -8.12334                      20.29472                     -44.07356
                      -8.34157                      20.84195                     -45.23324
                      -8.56031                      21.38961                     -46.39447
                      -8.77949                      21.93796                     -47.55693
                      -8.99908                      22.48706                     -48.72047
                      -9.21903                      23.03689                     -49.88486
                      -9.43936                      23.58713                     -51.05029
                      -9.66002                      24.13751                     -52.21659
                      -9.88095                      24.68773                     -53.38352
                     -10.10205                      25.23768                     -54.55069
                     -10.32324                      25.78734                     -55.71765
                     -10.54437                      26.33614                     -56.88387
                     -10.77070                      26.81385                     -58.08156
        </DataArray>
        <DataArray type="Float32" Name="OrientationX" NumberOfComponents="3" format="ascii">
                       0.93492                      -0.26792                      -0.23267
                       0.93508                      -0.26824                      -0.23168
                       0.93649                      -0.26694                      -0.22744
                       0.93953                      -0.26131                      -0.22136
                       0.94346                      -0.25097                      -0.21654
                       0.94788                      -0.23686                      -0.21311
                       0.95239                      -0.21994                      -0.21112
                       0.95671                      -0.20162                      -0.20989
                       0.96099                      -0.18441                      -0.20613
                       0.96507                      -0.16922                      -0.20001
                       0.96834                      -0.15543                      -0.19535
                       0.97061                      -0.14273                      -0.19375
                       0.97228                      -0.13063                      -0.19392
                       0.97389                      -0.11882                      -0.19346
                       0.97534                      -0.10752                      -0.19273
                       0.97654                      -0.09655                      -0.19246
                       0.97747                      -0.08602                      -0.19276
                       0.97817                      -0.07631                      -0.19330
                       0.97883                      -0.06787                      -0.19312
                       0.97951                      -0.06077                      -0.19199
                       0.98024                      -0.05465                      -0.19009
                       0.98087                      -0.04890                      -0.18843
                       0.98120                      -0.04292                      -0.18816
                       0.98125                      -0.03675                      -0.18918
                       0.98103                      -0.03033                      -0.19145
                       0.98061                      -0.02380                      -0.19450
                       0.98039                      -0.01815                      -0.19621
                       0.98045                      -0.01359                      -0.19631
                       0.98051                      -0.00944                      -0.19624
                       0.98037                      -0.00513                      -0.19708
                       0.97994                      -0.00032                      -0.19930
                       0.97921                       0.00503                      -0.20279
                       0.97820                       0.01095                      -0.20739
                       0.97695                       0.01748                      -0.21276
                       0.97578                       0.02410                      -0.21742
                       0.97491                       0.03070                      -0.22045
                       0.97407                       0.03799                      -0.22305
                       0.97307                       0.04547                      -0.22597
                       0.97191                       0.05282                      -0.22935
                       0.97054                       0.05968                      -0.23341
                       0.96906                       0.06563                      -0.23793
                       0.96749                       0.06952                      -0.24316
                       0.96603                       0.07205                      -0.24819
                       0.96472                       0.07373                      -0.25274
                       0.96344                       0.07480                      -0.25727
                       0.96222                       0.07519                      -0.26169
                       0.96111                       0.07476                      -0.26586
                       0.96006                       0.07336                      -0.27002
                       0.95927                       0.07079                      -0.27348
                       0.95829                       0.06761                      -0.27767
        </DataArray>
        <DataArray type="Float32" Name="OrientationY" NumberOfComponents="3" format="ascii">
                       0.33710                       0.87537                       0.34654
                       0.33702                       0.87529                       0.34682
                       0.33425                       0.87567                       0.34854
                       0.32681                       0.87728                       0.35153
                       0.31554                       0.88011                       0.35473
                       0.30132                       0.88376                       0.35800
                       0.28510                       0.88782                       0.36124
                       0.26792                       0.89182                       0.36452
                       0.25080                       0.89523                       0.36832
                       0.23462                       0.89795                       0.37235
                       0.22029                       0.90015                       0.37576
                       0.20816                       0.90195                       0.37835
                       0.19728                       0.90349                       0.38051
                       0.18643                       0.90484                       0.38277
                       0.17595                       0.90598                       0.38501
                       0.16596                       0.90697                       0.38712
                       0.15661                       0.90779                       0.38908
                       0.14812                       0.90845                       0.39088
                       0.14048                       0.90892                       0.39260
                       0.13368                       0.90924                       0.39422
                       0.12745                       0.90947                       0.39576
                       0.12165                       0.90964                       0.39719
                       0.11621                       0.90980                       0.39845
                       0.11112                       0.90993                       0.39959
                       0.10632                       0.91005                       0.40064
                       0.10175                       0.91013                       0.40163
                       0.09742                       0.91017                       0.40261
                       0.09342                       0.91017                       0.40357
                       0.08970                       0.91015                       0.40446
                       0.08623                       0.91012                       0.40527
                       0.08288                       0.91009                       0.40603
                       0.07957                       0.91005                       0.40678
                       0.07622                       0.91000                       0.40754
                       0.07265                       0.90992                       0.40836
                       0.06873                       0.90982                       0.40928
                       0.06414                       0.90968                       0.41034
                       0.05877                       0.90948                       0.41157
                       0.05337                       0.90925                       0.41281
                       0.04829                       0.90900                       0.41399
                       0.04393                       0.90875                       0.41502
                       0.04057                       0.90854                       0.41583
                       0.03931                       0.90846                       0.41612
                       0.03915                       0.90847                       0.41611
                       0.03953                       0.90853                       0.41594
                       0.04045                       0.90863                       0.41563
                       0.04189                       0.90878                       0.41517
                       0.04396                       0.90897                       0.41453
                       0.04686                       0.90923                       0.41365
                       0.05049                       0.90954                       0.41254
                       0.05495                       0.90989                       0.41119
        </DataArray>
        <DataArray type="Float32" Name="OrientationZ" NumberOfComponents="3" format="ascii">
                       0.11083                      -0.40242                       0.90872
                       0.10975                      -0.40239                       0.90887
                       0.10612                      -0.40243                       0.90928
                       0.10233                      -0.40262                       0.90963
                       0.10155                      -0.40300                       0.90955
                       0.10354                      -0.40356                       0.90908
                       0.10799                      -0.40424                       0.90826
                       0.11369                      -0.40497                       0.90723
                       0.11661                      -0.40565                       0.90656
                       0.11659                      -0.40627                       0.90628
                       0.11744                      -0.40690                       0.90589
                       0.12075                      -0.40756                       0.90516
                       0.12550                      -0.40822                       0.90421
                       0.12957                      -0.40884                       0.90336
                       0.13322                      -0.40943                       0.90256
                       0.13718                      -0.40998                       0.90172
                       0.14152                      -0.41050                       0.90081