<?xml version="1.0"?>
<VTKFile type="PolyData" version="0.1" byte_order="LittleEndian">
  <PolyData>
    <Piece NumberOfPoints="     50" NumberOfVerts="  0" NumberOfLines="     49"
           NumberOfStrips="  0" NumberOfPolys="      0">
      <Points>
        <DataArray type="Float32" NumberOfComponents="3" format="ascii">
                     -10.99906                      -3.90254                     148.67470
                     -11.19598                      -6.18965                     148.01248
                     -11.40204                      -8.46504                     147.31676
                     -11.63001                     -10.71698                     146.55545
                     -11.86991                     -12.95291                     145.74883
                     -12.11231                     -15.17995                     144.91621
                     -12.34810                     -17.40594                     144.07924
                     -12.56779                     -19.64190                     143.26884
                     -12.76915                     -21.89247                     142.49847
                     -12.97277                     -24.13969                     141.71934
                     -13.17805                     -26.38591                     140.93832
                     -13.37879                     -28.63626                     140.16894
                     -13.56538                     -30.89723                     139.42787
                     -13.74016                     -33.16422                     138.70181
                     -13.90894                     -35.42906                     137.96795
                     -14.07109                     -37.69164                     137.22588
                     -14.22566                     -39.95256                     136.47732
                     -14.37162                     -42.21185                     135.72221
                     -14.51028                     -44.47014                     134.96276
                     -14.64554                     -46.72779                     134.20063
                     -14.78008                     -48.98497                     133.43653
                     -14.91651                     -51.24167                     132.67039
                     -15.05221                     -53.49767                     131.90081
                     -15.18357                     -55.75280                     131.12656
                     -15.30826                     -58.00720                     130.34763
                     -15.42291                     -60.26080                     129.56342
                     -15.52756                     -62.51357                     128.77381
                     -15.62971                     -64.76573                     127.97956
                     -15.73096                     -67.01801                     127.18214
                     -15.83121                     -69.27039                     126.38087
                     -15.92638                     -71.52295                     125.57541
                     -16.01348                     -73.77570                     124.76549
                     -16.08882                     -76.02867                     123.95118
                     -16.14999                     -78.28183                     123.13249
                     -16.19464                     -80.53499                     122.30932
                     -16.22793                     -82.78864                     121.48246
                     -16.25173                     -85.04302                     120.65219
                     -16.26445                     -87.29817                     119.81882
                     -16.26553                     -89.55415                     118.98261
                     -16.25347                     -91.81087                     118.14386
                     -16.22741                     -94.06786                     117.30188
                     -16.18789                     -96.32489                     116.45654
                     -16.13509                     -98.58171                     115.60785
                     -16.07211                    -100.83871                     114.75679
                     -15.99924                    -103.09578                     113.90389
                     -15.91719                    -105.35276                     113.04968
                     -15.82674                    -107.60930                     112.19441
                     -15.72970                    -109.86504                     111.33827
                     -15.62595                    -112.11954                     110.48221
                     -15.50316                    -114.42290                     109.75887
        </DataArray>
      </Points>
      <PointData>
        <DataArray type="Float32" Name="TranslationalVelocity" NumberOfComponents="3" format="ascii">
                       0.99888                       0.80808                      -2.73535
                       0.82459                       1.29979                      -4.38175
                       0.65134                       1.81616                      -6.01913
                       0.47990                       2.38100                      -7.63843
                       0.30988                       2.97870                      -9.24462
                       0.14085                       3.59442                     -10.84252
                      -0.02767                       4.21179                     -12.43753
                      -0.19636                       4.80785                     -14.03734
                      -0.36553                       5.37290                     -15.64511
                      -0.53422                       5.94333                     -17.24772
                      -0.70263                       6.51417                     -18.84680
                      -0.87116                       7.07536                     -20.44599
                      -1.04028                       7.61444                     -22.04993
                      -1.20981                       8.14112                     -23.65535
                      -1.37940                       8.67203                     -25.25644
                      -1.54917                       9.20741                     -26.85321
                      -1.71926                       9.74599                     -28.44615
                      -1.88981                      10.28773                     -30.03535
                      -2.06097                      10.83118                     -31.62133
                      -2.23289                      11.37550                     -33.20435
                      -2.40571                      11.92038                     -34.78459
                      -2.57959                      12.46609                     -36.36202
                      -2.75465                      13.01345                     -37.93655
                      -2.93105                      13.56303                     -39.50808
                      -3.10897                      14.11468                     -41.07671
                      -3.28855                      14.66854                     -42.64242
                      -3.46996                      15.22469                     -44.20513
                      -3.65341                      15.78314                     -45.76486
                      -3.83911                      16.34299                     -47.32200
                      -4.02725                      16.90468                     -48.87643
                      -4.21804                      17.46813                     -50.42813
                      -4.41166                      18.03323                     -51.97700
                      -4.60830                      18.59958                     -53.52300
                      -4.80814                      19.16693                     -55.06597
                      -5.01136                      19.73506                     -56.60572
                      -5.21816                      20.30382                     -58.14240
                      -5.42872                      20.87312                     -59.67602
                      -5.64320                      21.44257                     -61.20657
                      -5.86176                      22.01189                     -62.73402
                      -6.08450                      22.58070                     -64.25832
                      -6.31148                      23.14933                     -65.77919
                      -6.54275                      23.71787                     -67.29653
                      -6.77829                      24.28630                     -68.81032
                      -7.01811                      24.85424                     -70.32095
                      -7.26210                      25.42138                     -71.82862
                      -7.51012                      25.98745                     -73.33360
                      -7.76194                      26.55243                     -74.83613
                      -8.01727                      27.11646                     -76.33655
                      -8.27573                      27.67902                     -77.83534
                      -8.53941                      28.15075                     -79.36691
        </DataArray>
        <DataArray type="Float32" Name="RotationalVelocity" NumberOfComponents="3" format="ascii">
                       0.72036                       0.00537                      -0.07471
                       0.72021                       0.00534                      -0.07458
                       0.71986                       0.00533                      -0.07442
                       0.71928                       0.00533                      -0.07422
                       0.71850                       0.00534                      -0.07401
                       0.71758                       0.00537                      -0.07378
                       0.71654                       0.00541                      -0.07356
                       0.71541                       0.00547                      -0.07336
                       0.71421                       0.00554                      -0.07319
                       0.71297                       0.00563                      -0.07304
                       0.71172                       0.00573                      -0.07293
                       0.71045                       0.00584                      -0.07286
                       0.70919                       0.00597                      -0.07283
                       0.70795                       0.00611                      -0.07284
                       0.70673                       0.00626                      -0.07289
                       0.70554                       0.00642                      -0.07299
                       0.70438                       0.00659                      -0.07314
                       0.70324                       0.00678                      -0.07334
                       0.70213                       0.00698                      -0.07360
                       0.70105                       0.00719                      -0.07390
                       0.69999                       0.00742                      -0.07426
                       0.69894                       0.00767                      -0.07468
                       0.69790                       0.00794                      -0.07516
                       0.69686                       0.00822                      -0.07571
                       0.69581                       0.00853                      -0.07631
                       0.69475                       0.00886                      -0.07698
                       0.69367                       0.00921                      -0.07772
                       0.69256                       0.00959                      -0.07852
                       0.69141                       0.00999                      -0.07940
                       0.69023                       0.01042                      -0.08034
                       0.68900                       0.01088                      -0.08135
                       0.68772                       0.01136                      -0.08243
                       0.68639                       0.01187                      -0.08357
                       0.68501                       0.01241                      -0.08477
                       0.68358                       0.01297                      -0.08604
                       0.68211                       0.01355                      -0.08737
                       0.68061                       0.01415                      -0.08875
                       0.67908                       0.01478                      -0.09017
                       0.67754                       0.01541                      -0.09165
                       0.67600                       0.01606                      -0.09315
                       0.67448                       0.01672                      -0.09468
                       0.67299                       0.01737                      -0.09621
                       0.67157                       0.01801                      -0.09774
                       0.67023                       0.01864                      -0.09925
                       0.66901                       0.01924                      -0.10072
                       0.66795                       0.01981                      -0.10213
                       0.66709                       0.02033                      -0.10347
                       0.66647                       0.02080                      -0.10472
                       0.66616                       0.02120                      -0.10586
                       0.66610                       0.02154                      -0.10690
        </DataArray>
        <DataArray type="Float32" Name="TranslationalAcceleration" NumberOfComponents="3" format="ascii">
                       0.77823                       1.78425                       0.30166
                       0.74634                       3.08140                       0.33568
                       0.71968                       4.37392                       0.39810
                       0.70224                       5.65573                       0.51613
                       0.69455                       6.92288                       0.68378
                       0.69650                       8.17229                       0.89447
                       0.70736                       9.40259                       1.13962
                       0.72574                      10.61551                       1.40532
                       0.75076                      11.81325                       1.68752
                       0.78368                      12.98937                       2.01568
                       0.82320                      14.14428                       2.38712
                       0.86783                      15.28080                       2.79512
                       0.91609                      16.40390                       3.23110
                       0.96746                      17.51264                       3.70200
                       1.02150                      18.60252                       4.21876
                       1.07709                      19.67362                       4.78043
                       1.13311                      20.72662                       5.38492
                       1.18853                      21.76183                       6.03094
                       1.24238                      22.78011                       6.71636
                       1.29381                      23.78213                       7.43966
                       1.34205                      24.76839                       8.19980
                       1.38644                      25.73914                       8.99634
                       1.42635                      26.69429                       9.82915
                       1.46121                      27.63363                      10.69816
                       1.49048                      28.55717                      11.60309
                       1.51375                      29.46471                      12.54371
                       1.53062                      30.35581                      13.52045
                       1.54069                      31.23005                      14.53478
                       1.54363                      32.08764                      15.58736
                       1.53917                      32.92779                      16.67974
                       1.52702                      33.74974                      17.81315
                       1.50695                      34.55261                      18.98896
                       1.47871                      35.33552                      20.20842
                       1.44209                      36.09749                      21.47295
                       1.39689                      36.83739                      22.78393
                       1.34293                      37.55484                      24.14352
                       1.28000                      38.24928                      25.55349
                       1.20785                      38.92018                      27.01487
                       1.12621                      39.56714                      28.52844
                       1.03488                      40.18993                      30.09434
                       0.93370                      40.78781                      31.71235
                       0.82261                      41.36071                      33.38162
                       0.70172                      41.90899                      35.10021
                       0.57123                      42.43438                      36.86560
                       0.43143                      42.93868                      38.67353
                       0.28266                      43.42437                      40.51835
                       0.12528                      43.89435                      42.39282
                      -0.04026                      44.35237                      44.28807
                      -0.21357                      44.80346                      46.19251
                      -0.39250                      45.36268                      48.06649
        </DataArray>
        <DataArray type="Float32" Name="OrientationX" NumberOfComponents="3" format="ascii">
                       0.91871                       0.04322                      -0.39257
                       0.91867                       0.04222                      -0.39277
                       0.91954                       0.03790                      -0.39117
                       0.92225                       0.03183                      -0.38528
                       0.92662                       0.02720                      -0.37502
                       0.93216                       0.02414                      -0.36125
                       0.93836                       0.02269                      -0.34491
                       0.94467                       0.02207                      -0.32727
                       0.95041                       0.01883                      -0.31044
                       0.95530                       0.01307                      -0.29534
                       0.95946                       0.00872                      -0.28172
                       0.96300                       0.00740                      -0.26942
                       0.96615                       0.00783                      -0.25785
                       0.96911                       0.00758                      -0.24650
                       0.97182                       0.00703                      -0.23562
                       0.97431                       0.00690                      -0.22510
                       0.97657                       0.00731                      -0.21506
                       0.97855                       0.00788                      -0.20585
                       0.98021                       0.00761                      -0.19782
                       0.98157                       0.00624                      -0.19103
                       0.98270                       0.00401                      -0.18514
                       0.98373                       0.00194                      -0.17964
                       0.98473                       0.00127                      -0.17407
                       0.98571                       0.00190                      -0.16841
                       0.98668                       0.00377                      -0.16263
                       0.98760                       0.00640                      -0.15683
                       0.98838                       0.00758                      -0.15178
                       0.98901                       0.00698                      -0.14770
                       0.98956                       0.00613                      -0.14402
                       0.99009                       0.00619                      -0.14028
                       0.99065                       0.00765                      -0.13618
                       0.99124                       0.01041                      -0.13165
                       0.99184                       0.01431                      -0.12666
                       0.99245                       0.01903                      -0.12113
                       0.99304                       0.02302                      -0.11547
                       0.99364                       0.02532                      -0.10969
                       0.99429                       0.02723                      -0.10320
                       0.99489                       0.02948                      -0.09654
                       0.99542                       0.03219                      -0.09005
                       0.99582                       0.03558                      -0.08408
                       0.99609                       0.03938                      -0.07904
                       0.99614                       0.04376                      -0.07608
                       0.99608                       0.04786                      -0.07444
                       0.99596                       0.05144                      -0.07359
                       0.99579                       0.05501                      -0.07333
                       0.99556                       0.05848                      -0.07369
                       0.99528                       0.06172                      -0.07483
                       0.99492                       0.06499                      -0.07689
                       0.99450                       0.06754                      -0.08001
                       0.99396                       0.07091                      -0.08374
        </DataArray>
        <DataArray type="Float32" Name="OrientationY" NumberOfComponents="3" format="ascii">
                       0.38543                      -0.31495                       0.86733
                       0.38528                      -0.31531                       0.86726
                       0.38233                      -0.31666                       0.86807
                       0.37475                      -0.31845                       0.87072
                       0.36351                      -0.31976                       0.87499
                       0.34949                      -0.32062                       0.88037
                       0.33356                      -0.32111                       0.88636
                       0.31667                      -0.32151                       0.89239
                       0.29967                      -0.32252                       0.89788
                       0.28348                      -0.32397                       0.90260
                       0.26914                      -0.32519                       0.90654
                       0.25703                      -0.32600                       0.90976
                       0.24618                      -0.32664                       0.91252
                       0.23533                      -0.32738                       0.91512
                       0.22482                      -0.32815                       0.91748
                       0.21479                      -0.32888                       0.91962
                       0.20540                      -0.32957                       0.92152
                       0.19685                      -0.33025                       0.92314
                       0.18914                      -0.33100                       0.92448
                       0.18224                      -0.33179                       0.92558
                       0.17591                      -0.33260                       0.92652
                       0.17001                      -0.33336                       0.92735
                       0.16449                      -0.33402                       0.92810
                       0.15933                      -0.33461                       0.92879
                       0.15447                      -0.33516                       0.92941
                       0.14986                      -0.33570                       0.92997
                       0.14547                      -0.33629                       0.93046
                       0.14139                      -0.33692                       0.93086
                       0.13762                      -0.33754                       0.93120
                       0.13409                      -0.33814                       0.93149
                       0.13070                      -0.33874                       0.93176
                       0.12735                      -0.33934                       0.93200
                       0.12395                      -0.33996                       0.93223
                       0.12034                      -0.34062                       0.93247
                       0.11636                      -0.34132                       0.93272
                       0.11171                      -0.34204                       0.93302
                       0.10627                      -0.34278                       0.93338
                       0.10079                      -0.34354                       0.93371
                       0.09563                      -0.34430                       0.93398
                       0.09120                      -0.34506                       0.93414
                       0.08780                      -0.34578                       0.93420
                       0.08656                      -0.34640                       0.93409
                       0.08646                      -0.34691                       0.93390
                       0.08693                      -0.34734                       0.93370
                       0.08795                      -0.34769                       0.93348
                       0.08952                      -0.34793                       0.93324
                       0.09173                      -0.34804                       0.93298
                       0.09481                      -0.34798                       0.93270
                       0.09863                      -0.34772                       0.93240
                       0.10330                      -0.34730                       0.93205
        </DataArray>
        <DataArray type="Float32" Name="OrientationZ" NumberOfComponents="3" format="ascii">
                      -0.08615                      -0.94812                      -0.30600
                      -0.08723                      -0.94805                      -0.30593
                      -0.09097                      -0.94778                      -0.30568
                      -0.09498                      -0.94740                      -0.30562
                      -0.09611                      -0.94711                      -0.30619
                      -0.09457                      -0.94690                      -0.30731
                      -0.09065                      -0.94677                      -0.30889
                      -0.08552                      -0.94665                      -0.31071
                      -0.08322                      -0.94638                      -0.31216
                      -0.08389                      -0.94598                      -0.31319
                      -0.08371                      -0.94561                      -0.31435
                      -0.08110                      -0.94534                      -0.31584
                      -0.07708                      -0.94512                      -0.31751
                      -0.07376                      -0.94486                      -0.31905
                      -0.07087                      -0.94460                      -0.32049
                      -0.06769                      -0.94434                      -0.32192
                      -0.06414                      -0.94410                      -0.32335