<?xml version="1.0"?>
<VTKFile type="PolyData" version="0.1" byte_order="LittleEndian">
  <PolyData>
    <Piece NumberOfPoints="      3" NumberOfVerts="  0" NumberOfLines="      2"
           NumberOfStrips="  0" NumberOfPolys="      0">
      <Points>
        <DataArray type="Float32" NumberOfComponents="3" format="ascii">
                      30.48042                       0.01450                     147.55945
                      30.48080                       0.01448                     147.56443
                      30.48004                       0.01453                     147.55446
        </DataArray>
      </Points>
      <PointData>
        <DataArray type="Float32" Name="TranslationalVelocity" NumberOfComponents="3" format="ascii">
                      -0.33957                      -0.07525                      -0.01409
                      -0.33957                      -0.07525                      -0.01409
                      -0.33956                      -0.07525                      -0.01409
        </DataArray>
        <DataArray type="Float32" Name="RotationalVelocity" NumberOfComponents="3" format="ascii">
                       0.00049                      -0.00043                      -0.00025
                       0.00049                      -0.00043                      -0.00025
                       0.00049                      -0.00043                      -0.00025
        </DataArray>
        <DataArray type="Float32" Name="TranslationalAcceleration" NumberOfComponents="3" format="ascii">
                       0.00822                      -0.01889                       0.01787
                       0.00822                      -0.01889                       0.01787
                       0.00822                      -0.01889                       0.01787
        </DataArray>
        <DataArray type="Float32" Name="RotationalAcceleration" NumberOfComponents="3" format="ascii">
                      -0.00003                       0.00010                      -0.00062
                      -0.00003                       0.00010                      -0.00062
                      -0.00003                       0.00010                      -0.00062
        </DataArray>
        <DataArray type="Float32" Name="OrientationX" NumberOfComponents="3" format="ascii">
                       0.99705                       0.00301                      -0.07672
                       0.99705                       0.00301                      -0.07672
                       0.99705                       0.00301                      -0.07672
        </DataArray>
        <DataArray type="Float32" Name="OrientationY" NumberOfComponents="3" format="ascii">
                      -0.00267                       0.99999                       0.00464
                      -0.00267                       0.99999                       0.00464
                      -0.00267                       0.99999                       0.00464
        </DataArray>
        <DataArray type="Float32" Name="OrientationZ" NumberOfComponents="3" format="ascii">
                       0.07674                      -0.00442                       0.99704
                       0.07674                      -0.00442                       0.99704
                       0.07674                      -0.00442                       0.99704
        </DataArray>
      </PointData>
      <Lines>
        <DataArray type="Int32" Name="connectivity" format="ascii">
      0      1
      2      0
        </DataArray>
        <DataArray type="Int32" Name="offsets" format="ascii">
      2
      4
        </DataArray>
      </Lines>
    </Piece>
  </PolyData>
</VTKFile>
