<?xml version="1.0"?>
<VTKFile type="PolyData" version="0.1" byte_order="LittleEndian">
  <PolyData>
    <Piece NumberOfPoints="      3" NumberOfVerts="  0" NumberOfLines="      2"
           NumberOfStrips="  0" NumberOfPolys="      0">
      <Points>
        <DataArray type="Float32" NumberOfComponents="3" format="ascii">
                      37.76489                       0.19867                     147.90470
                      37.76527                       0.19866                     147.90969
                      37.76451                       0.19868                     147.89972
        </DataArray>
      </Points>
      <PointData>
        <DataArray type="Float32" Name="TranslationalVelocity" NumberOfComponents="3" format="ascii">
                       0.17914                       0.00916                       0.02195
                       0.17914                       0.00916                       0.02195
                       0.17913                       0.00916                       0.02195
        </DataArray>
        <DataArray type="Float32" Name="RotationalVelocity" NumberOfComponents="3" format="ascii">
                       0.00005                       0.00095                       0.00018
                       0.00005                       0.00095                       0.00018
                       0.00005                       0.00095                       0.00018
        </DataArray>
        <DataArray type="Float32" Name="TranslationalAcceleration" NumberOfComponents="3" format="ascii">
                      -0.09750                      -0.02701                      -0.01048
                      -0.09751                      -0.02701                      -0.01048
                      -0.09750                      -0.02701                      -0.01048
        </DataArray>
        <DataArray type="Float32" Name="RotationalAcceleration" NumberOfComponents="3" format="ascii">
                       0.00022                      -0.00099                       0.00007
                       0.00022                      -0.00099                       0.00007
                       0.00022                      -0.00099                       0.00007
        </DataArray>
        <DataArray type="Float32" Name="OrientationX" NumberOfComponents="3" format="ascii">
                       0.99711                       0.00783                      -0.07555
                       0.99711                       0.00783                      -0.07555
                       0.99711                       0.00783                      -0.07555
        </DataArray>
        <DataArray type="Float32" Name="OrientationY" NumberOfComponents="3" format="ascii">
                      -0.00766                       0.99997                       0.00257
                      -0.00766                       0.99997                       0.00257
                      -0.00766                       0.99997                       0.00257
        </DataArray>
        <DataArray type="Float32" Name="OrientationZ" NumberOfComponents="3" format="ascii">
                       0.07557                      -0.00198                       0.99714
                       0.07557                      -0.00198                       0.99714
                       0.07557                      -0.00198                       0.99714
        </DataArray>
      </PointData>
      <Lines>
        <DataArray type="Int32" Name="connectivity" format="ascii">
      0      1
      2      0
        </DataArray>
        <DataArray type="Int32" Name="offsets" format="ascii">
      2
      4
        </DataArray>
      </Lines>
    </Piece>
  </PolyData>
</VTKFile>
