<?xml version="1.0"?>
<VTKFile type="PolyData" version="0.1" byte_order="LittleEndian">
  <PolyData>
    <Piece NumberOfPoints="     50" NumberOfVerts="  0" NumberOfLines="     49"
           NumberOfStrips="  0" NumberOfPolys="      0">
      <Points>
        <DataArray type="Float32" NumberOfComponents="3" format="ascii">
                      21.60974                       1.98356                     152.60274
                      21.74625                       3.64971                     154.30963
                      21.88214                       5.28927                     156.04085
                      22.01313                       6.87602                     157.82063
                      22.14399                       8.42733                     159.63275
                      22.27914                       9.95971                     161.46181
                      22.42210                      11.49130                     163.29094
                      22.57442                      13.04734                     165.09682
                      22.73494                      14.63852                     166.86966
                      22.89576                      16.22439                     168.64712
                      23.05575                      17.81037                     170.42435
                      23.21756                      19.40783                     172.19079
                      23.38634                      21.03096                     173.93289
                      23.56313                      22.66920                     175.66023
                      23.74793                      24.30414                     177.38968
                      23.94146                      25.93547                     179.12141
                      24.14424                      27.56459                     180.85407
                      24.35732                      29.19148                     182.58749
                      24.57893                      30.81763                     184.32050
                      24.80497                      32.44376                     186.05297
                      25.03275                      34.07017                     187.78514
                      25.25988                      35.69659                     189.51778
                      25.48934                      37.32234                     191.25130
                      25.72501                      38.94693                     192.98567
                      25.96927                      40.57067                     194.72036
                      26.22563                      42.19342                     196.45489
                      26.49420                      43.81513                     198.18934
                      26.76774                      45.43591                     199.92514
                      27.04452                      47.05702                     201.66178
                      27.32497                      48.67823                     203.39973
                      27.61324                      50.29978                     205.13812
                      27.91245                      51.92184                     206.87629
                      28.22627                      53.54481                     208.61307
                      28.55713                      55.16885                     210.34767
                      28.90747                      56.79401                     212.07931
                      29.27228                      58.42082                     213.80884
                      29.64982                      60.04956                     215.53655
                      30.04165                      61.68057                     217.26165
                      30.44834                      63.31409                     218.98368
                      30.87129                      64.95027                     220.70184
                      31.31156                      66.58839                     222.41620
                      31.76870                      68.22811                     224.12688
                      32.24250                      69.86909                     225.83384
                      32.72978                      71.51179                     227.53735
                      33.23007                      73.15610                     229.23710
                      33.74246                      74.80180                     230.93295
                      34.26598                      76.44831                     232.62498
                      34.79870                      78.09485                     234.31372
                      35.34019                      79.74094                     235.99854
                      35.86873                      81.49041                     237.58563
        </DataArray>
      </Points>
      <PointData>
        <DataArray type="Float32" Name="TranslationalVelocity" NumberOfComponents="3" format="ascii">
                       0.97691                      -1.99847                       1.88054
                       1.18414                      -3.22189                       3.05819
                       1.38850                      -4.46255                       4.21714
                       1.58717                      -5.73721                       5.33894
                       1.78204                      -7.03504                       6.43590
                       1.97492                      -8.34573                       7.51972
                       2.16779                      -9.65781                       8.60323
                       2.36342                     -10.95498                       9.70434
                       2.56299                     -12.23017                      10.83066
                       2.76216                     -13.50917                      11.95363
                       2.96153                     -14.78842                      13.07711
                       3.16237                     -16.06072                      14.20912
                       3.36623                     -17.31705                      15.35972
                       3.57198                     -18.56430                      16.52141
                       3.77763                     -19.81444                      17.68109
                       3.98317                     -21.06766                      18.83854
                       4.18875                     -22.32306                      19.99472
                       4.39437                     -23.58061                      21.14959
                       4.60020                     -24.83928                      22.30421
                       4.80632                     -26.09848                      23.45911
                       5.01277                     -27.35804                      24.61453
                       5.21952                     -28.61823                      25.77028
                       5.42647                     -29.87968                      26.92584
                       5.63358                     -31.14284                      28.08084
                       5.84084                     -32.40758                      29.23545
                       6.04824                     -33.67399                      30.38956
                       6.25575                     -34.94214                      31.54312
                       6.46338                     -36.21222                      32.69629
                       6.67127                     -37.48367                      33.85000
                       6.87937                     -38.75688                      35.00410
                       7.08768                     -40.03176                      36.15873
                       7.29621                     -41.30821                      37.31400
                       7.50497                     -42.58586                      38.47018
                       7.71396                     -43.86444                      39.62738
                       7.92314                     -45.14373                      40.78563
                       8.13259                     -46.42374                      41.94538
                       8.34231                     -47.70450                      43.10687
                       8.55232                     -48.98566                      44.27035
                       8.76263                     -50.26695                      45.43599
                       8.97324                     -51.54799                      46.60391
                       9.18403                     -52.82894                      47.77359
                       9.39497                     -54.10984                      48.94478
                       9.60598                     -55.39060                      50.11724
                       9.81710                     -56.67103                      51.29129
                      10.02830                     -57.95079                      52.46684
                      10.23953                     -59.22961                      53.64370
                      10.45070                     -60.50736                      54.82138
                      10.66171                     -61.78408                      55.99926
                      10.87246                     -63.05915                      57.17691
                      11.09428                     -64.26249                      58.42898
        </DataArray>
        <DataArray type="Float32" Name="RotationalVelocity" NumberOfComponents="3" format="ascii">
                       0.70747                       0.00823                      -0.11594
                       0.70751                       0.00823                      -0.11595
                       0.70760                       0.00824                      -0.11596
                       0.70774                       0.00824                      -0.11597
                       0.70791                       0.00825                      -0.11599
                       0.70813                       0.00827                      -0.11602
                       0.70836                       0.00830                      -0.11606
                       0.70861                       0.00833                      -0.11610
                       0.70888                       0.00837                      -0.11616
                       0.70915                       0.00842                      -0.11622
                       0.70942                       0.00847                      -0.11629
                       0.70969                       0.00854                      -0.11636
                       0.70996                       0.00861                      -0.11644
                       0.71022                       0.00868                      -0.11652
                       0.71048                       0.00876                      -0.11661
                       0.71072                       0.00884                      -0.11670
                       0.71096                       0.00892                      -0.11679
                       0.71119                       0.00901                      -0.11688
                       0.71141                       0.00910                      -0.11697
                       0.71162                       0.00918                      -0.11707
                       0.71183                       0.00926                      -0.11715
                       0.71203                       0.00935                      -0.11724
                       0.71222                       0.00943                      -0.11733
                       0.71242                       0.00950                      -0.11741
                       0.71261                       0.00957                      -0.11749
                       0.71281                       0.00964                      -0.11756
                       0.71301                       0.00971                      -0.11763
                       0.71322                       0.00976                      -0.11770
                       0.71343                       0.00982                      -0.11776
                       0.71365                       0.00986                      -0.11781
                       0.71388                       0.00990                      -0.11786
                       0.71412                       0.00994                      -0.11791
                       0.71437                       0.00997                      -0.11795
                       0.71463                       0.00999                      -0.11799
                       0.71490                       0.01001                      -0.11802
                       0.71518                       0.01002                      -0.11805
                       0.71547                       0.01003                      -0.11807
                       0.71577                       0.01003                      -0.11809
                       0.71608                       0.01002                      -0.11811
                       0.71638                       0.01001                      -0.11812
                       0.71668                       0.01000                      -0.11812
                       0.71698                       0.00998                      -0.11812
                       0.71727                       0.00996                      -0.11812
                       0.71753                       0.00993                      -0.11811
                       0.71778                       0.00989                      -0.11809
                       0.71799                       0.00985                      -0.11807
                       0.71816                       0.00981                      -0.11804
                       0.71827                       0.00976                      -0.11800
                       0.71833                       0.00971                      -0.11795
                       0.71833                       0.00965                      -0.11791
        </DataArray>
        <DataArray type="Float32" Name="TranslationalAcceleration" NumberOfComponents="3" format="ascii">
                      -0.20127                      -1.35407                      -1.47663
                      -0.33142                      -2.20837                      -2.34687
                      -0.46373                      -3.04920                      -3.22925
                      -0.60036                      -3.86324                      -4.13558
                      -0.73995                      -4.65955                      -5.05829
                      -0.88119                      -5.44672                      -5.99016
                      -1.02265                      -6.23416                      -6.92315
                      -1.16224                      -7.03496                      -7.84576
                      -1.29908                      -7.85469                      -8.75299
                      -1.43643                      -8.67258                      -9.66303
                      -1.57382                      -9.49145                     -10.57336
                      -1.71034                     -10.31716                     -11.47890
                      -1.84483                     -11.15703                     -12.37325
                      -1.97814                     -12.00560                     -13.26126
                      -2.11182                     -12.85334                     -14.15140
                      -2.24587                     -13.70004                     -15.04382
                      -2.38019                     -14.54640                     -15.93787
                      -2.51478                     -15.39238                     -16.83353
                      -2.64953                     -16.23871                     -17.73007
                      -2.78436                     -17.08577                     -18.62707
                      -2.91927                     -17.93372                     -19.52440
                      -3.05431                     -18.78238                     -20.42225
                      -3.18958                     -19.63140                     -21.32107
                      -3.32515                     -20.48048                     -22.22117
                      -3.46105                     -21.32976                     -23.12248
                      -3.59730                     -22.17914                     -24.02504
                      -3.73395                     -23.02860                     -24.92890
                      -3.87104                     -23.87826                     -25.83421
                      -4.00855                     -24.72882                     -26.74055
                      -4.14654                     -25.58016                     -27.64822
                      -4.28505                     -26.43244                     -28.55714
                      -4.42409                     -27.28574                     -29.46724
                      -4.56367                     -28.14028                     -30.37825
                      -4.70377                     -28.99618                     -31.28999
                      -4.84442                     -29.85348                     -32.20226
                      -4.98564                     -30.71253                     -33.11510
                      -5.12747                     -31.57352                     -34.02850
                      -5.26988                     -32.43667                     -34.94221
                      -5.41288                     -33.30211                     -35.85602
                      -5.55644                     -34.16993                     -36.76965
                      -5.70060                     -35.03974                     -37.68320
                      -5.84538                     -35.91136                     -38.59667
                      -5.99079                     -36.78458                     -39.51000
                      -6.13679                     -37.65960                     -40.42302
                      -6.28335                     -38.53629                     -41.33548
                      -6.43042                     -39.41443                     -42.24717
                      -6.57795                     -40.29355                     -43.15796
                      -6.72593                     -41.17308                     -44.06788
                      -6.87422                     -42.05251                     -44.97643
                      -7.01364                     -42.98622                     -45.83294
        </DataArray>
        <DataArray type="Float32" Name="OrientationX" NumberOfComponents="3" format="ascii">
                       0.98546                      -0.15762                       0.06340
                       0.98555                      -0.15681                       0.06412
                       0.98624                      -0.15218                       0.06465
                       0.98766                      -0.14384                       0.06195
                       0.98941                      -0.13456                       0.05443
                       0.99124                      -0.12491                       0.04290
                       0.99292                      -0.11540                       0.02824
                       0.99429                      -0.10602                       0.01206
                       0.99549                      -0.09480                      -0.00205
                       0.99652                      -0.08227                      -0.01331
                       0.99714                      -0.07174                      -0.02383
                       0.99732                      -0.06457                      -0.03454
                       0.99721                      -0.05932                      -0.04538
                       0.99701                      -0.05362                      -0.05567
                       0.99671                      -0.04790                      -0.06538
                       0.99627                      -0.04276                      -0.07494
                       0.99570                      -0.03837                      -0.08432
                       0.99506                      -0.03455                      -0.09303
                       0.99449                      -0.03058                      -0.10028
                       0.99403                      -0.02627                      -0.10594
                       0.99365                      -0.02166                      -0.11040
                       0.99326                      -0.01742                      -0.11462
                       0.99272                      -0.01440                      -0.11959
                       0.99204                      -0.01253                      -0.12526
                       0.99123                      -0.01174                      -0.13165
                       0.99030                      -0.01165                      -0.13845
                       0.98953                      -0.01067                      -0.14394
                       0.98898                      -0.00862                      -0.14780
                       0.98847                      -0.00659                      -0.15125
                       0.98787                      -0.00536                      -0.15520
                       0.98708                      -0.00525                      -0.16016
                       0.98608                      -0.00614                      -0.16613
                       0.98488                      -0.00787                      -0.17306
                       0.98346                      -0.01013                      -0.18085
                       0.98201                      -0.01172                      -0.18846
                       0.98065                      -0.01179                      -0.19544
                       0.97914                      -0.01123                      -0.20288
                       0.97750                      -0.01093                      -0.21064
                       0.97578                      -0.01114                      -0.21846
                       0.97402                      -0.01222                      -0.22613
                       0.97234                      -0.01410                      -0.23315
                       0.97096                      -0.01746                      -0.23860
                       0.96986                      -0.02116                      -0.24275
                       0.96896                      -0.02474                      -0.24596
                       0.96818                      -0.02855                      -0.24862
                       0.96753                      -0.03252                      -0.25064
                       0.96708                      -0.03658                      -0.25184
                       0.96682                      -0.04102                      -0.25216
                       0.96689                      -0.04524                      -0.25117
                       0.96696                      -0.05040                      -0.24991
        </DataArray>
        <DataArray type="Float32" Name="OrientationY" NumberOfComponents="3" format="ascii">
                       0.15869                       0.72059                      -0.67496
                       0.15858                       0.72074                      -0.67482
                       0.15559                       0.72186                      -0.67432
                       0.14768                       0.72375                      -0.67408
                       0.13579                       0.72561                      -0.67457
                       0.12089                       0.72732                      -0.67557
                       0.10395                       0.72879                      -0.67680
                       0.08607                       0.73007                      -0.67793
                       0.06827                       0.73159                      -0.67832
                       0.05147                       0.73318                      -0.67808
                       0.03664                       0.73432                      -0.67782
                       0.02411                       0.73492                      -0.67772
                       0.01290                       0.73526                      -0.67766
                       0.00174                       0.73562                      -0.67740
                      -0.00903                       0.73594                      -0.67698
                      -0.01929                       0.73618                      -0.67651
                      -0.02887                       0.73633                      -0.67600
                      -0.03758                       0.73644                      -0.67546
                      -0.04540                       0.73655                      -0.67486
                      -0.05238                       0.73666                      -0.67423
                      -0.05878                       0.73678                      -0.67358
                      -0.06473                       0.73684                      -0.67296
                      -0.07032                       0.73682                      -0.67242
                      -0.07554                       0.73674                      -0.67194
                      -0.08047                       0.73662                      -0.67150
                      -0.08516                       0.73647                      -0.67109
                      -0.08961                       0.73634                      -0.67065
                      -0.09375                       0.73621                      -0.67022
                      -0.09759                       0.73606                      -0.66984
                      -0.10119                       0.73587                      -0.66951
                      -0.10467                       0.73565                      -0.66922
                      -0.10812                       0.73541                      -0.66895
                      -0.11162                       0.73515                      -0.66866
                      -0.11533                       0.73488                      -0.66832
                      -0.11941                       0.73461                      -0.66790
                      -0.12417                       0.73432                      -0.66735
                      -0.12971                       0.73402                      -0.66662
                      -0.13528                       0.73370                      -0.66586
                      -0.14054                       0.73337                      -0.66514
                      -0.14509                       0.73304                      -0.66453
                      -0.14862                       0.73270                      -0.66412
                      -0.15005                       0.73234                      -0.66420
                      -0.15036                       0.73197                      -0.66454
                      -0.15013                       0.73159                      -0.66501
                      -0.14935                       0.73122                      -0.66559
                      -0.14803                       0.73088                      -0.66626
                      -0.14607                       0.73057                      -0.66704
                      -0.14323                       0.73028                      -0.66797
                      -0.13963                       0.73001                      -0.66902
                      -0.13518                       0.72977                      -0.67019
        </DataArray>
        <DataArray type="Float32" Name="OrientationZ" NumberOfComponents="3" format="ascii">
                       0.06070                       0.67521                       0.73512
                       0.05961                       0.67523                       0.73519
                       0.05595                       0.67510                       0.73560
                       0.05212                       0.67491                       0.73606
                       0.05128                       0.67482                       0.73620
                       0.05318                       0.67483                       0.73605
                       0.05752                       0.67495                       0.73562
                       0.06307                       0.67510                       0.73503
                       0.06580                       0.67512                       0.73477
                       0.06554                       0.67504                       0.73486
                       0.06613                       0.67500                       0.73484
                       0.06914                       0.67507                       0.73451
                       0.07356                       0.67518                       0.73397
                       0.07727                       0.67527                       0.73351
                       0.08054                       0.67535                       0.73309
                       0.08410                       0.67543                       0.73261
                       0.08802                       0.67553                       0.73206