<?xml version="1.0"?>
<VTKFile type="PolyData" version="0.1" byte_order="LittleEndian">
  <PolyData>
    <Piece NumberOfPoints="     50" NumberOfVerts="  0" NumberOfLines="     49"
           NumberOfStrips="  0" NumberOfPolys="      0">
      <Points>
        <DataArray type="Float32" NumberOfComponents="3" format="ascii">
                      -4.41668                       2.84548                     147.93971
                      -4.73110                       4.86137                     146.69654
                      -5.04639                       6.89505                     145.48471
                      -5.36738                       8.96358                     144.33548
                      -5.68954                      11.05573                     143.22787
                      -6.00866                      13.16079                     142.14201
                      -6.32139                      15.26685                     141.05616
                      -6.62622                      17.35696                     139.94044
                      -6.92444                      19.42369                     138.78240
                      -7.22437                      21.49356                     137.63052
                      -7.52727                      23.56282                     136.47857
                      -7.83060                      25.62410                     135.31297
                      -8.12924                      27.66819                     134.11641
                      -8.42237                      29.70229                     132.90126
                      -8.71027                      31.73884                     131.68919
                      -8.99232                      33.77808                     130.48050
                      -9.26812                      35.81911                     129.27352
                      -9.53671                      37.86197                     128.06811
                      -9.79996                      39.90554                     126.86281
                     -10.06209                      41.94914                     125.65728
                     -10.32589                      43.99256                     124.45158
                     -10.59392                      46.03605                     123.24643
                     -10.86334                      48.08036                     122.04232
                     -11.13042                      50.12611                     120.83939
                     -11.39290                      52.17325                     119.63701
                     -11.64736                      54.22199                     118.43486
                     -11.89382                      56.27242                     117.23304
                     -12.13978                      58.32459                     116.03252
                     -12.38716                      60.37790                     114.83220
                     -12.63573                      62.43284                     113.63242
                     -12.88146                      64.48941                     112.43235
                     -13.12138                      66.54762                     111.23137
                     -13.35189                      68.60718                     110.02848
                     -13.57065                      70.66788                     108.82306
                     -13.77529                      72.72955                     107.61465
                     -13.97102                      74.79215                     106.40348
                     -14.15973                      76.85572                     105.18954
                     -14.33989                      78.91994                     103.97217
                     -14.51095                      80.98460                     102.75098
                     -14.67145                      83.04937                     101.52546
                     -14.82028                      85.11444                     100.29616
                     -14.95780                      87.17987                      99.06347
                     -15.08406                      89.24560                      97.82765
                     -15.20214                      91.31139                      96.58863
                     -15.31222                      93.37692                      95.34639
                     -15.41490                      95.44188                      94.10111
                     -15.51068                      97.50615                      92.85338
                     -15.60102                      99.56971                      91.60414
                     -15.68566                     101.63189                      90.35359
                     -15.78462                     103.61976                      88.98202
        </DataArray>
      </Points>
      <PointData>
        <DataArray type="Float32" Name="TranslationalVelocity" NumberOfComponents="3" format="ascii">
                       2.60161                       1.16892                       2.15597
                       2.77364                       1.98934                       3.44282
                       2.94789                       2.78974                       4.74074
                       3.12631                       3.55056                       6.06038
                       3.30747                       4.28462                       7.39426
                       3.49003                       5.00412                       8.73533
                       3.67247                       5.72247                      10.07583
                       3.85272                       6.45842                      11.40489
                       4.02986                       7.21988                      12.71779
                       4.20696                       7.97687                      14.03141
                       4.38352                       8.73342                      15.34339
                       4.55860                       9.49786                      16.64904
                       4.73106                      10.28058                      17.94251
                       4.90167                      11.07370                      19.22840
                       5.07183                      11.86357                      20.51459
                       5.24151                      12.64997                      21.80126
                       5.41054                      13.43396                      23.08787
                       5.57886                      14.21554                      24.37449
                       5.74628                      14.99585                      25.66047
                       5.91266                      15.77549                      26.94551
                       6.07791                      16.55470                      28.22954
                       6.24200                      17.33324                      29.51281
                       6.40492                      18.11057                      30.79579
                       6.56664                      18.88627                      32.07882
                       6.72705                      19.66053                      33.36185
                       6.88610                      20.43325                      34.64499
                       7.04369                      21.20437                      35.92829
                       7.19972                      21.97390                      37.21190
                       7.35402                      22.74267                      38.49547
                       7.50652                      23.51041                      39.77929
                       7.65710                      24.27725                      41.06329
                       7.80563                      25.04329                      42.34739
                       7.95196                      25.80884                      43.63131
                       8.09594                      26.57404                      44.91485
                       8.23743                      27.33898                      46.19782
                       8.37634                      28.10391                      47.48026
                       8.51257                      28.86897                      48.76221
                       8.64598                      29.63442                      50.04342
                       8.77647                      30.40048                      51.32374
                       8.90395                      31.16734                      52.60292
                       9.02840                      31.93461                      53.88106
                       9.14981                      32.70213                      55.15822
                       9.26821                      33.46981                      56.43438
                       9.38361                      34.23799                      57.70952
                       9.49608                      35.00681                      58.98351
                       9.60573                      35.77635                      60.25629
                       9.71273                      36.54644                      61.52791
                       9.81733                      37.31683                      62.79860
                       9.91976                      38.08764                      64.06814
                      10.01239                      38.93392                      65.29255
        </DataArray>
        <DataArray type="Float32" Name="RotationalVelocity" NumberOfComponents="3" format="ascii">
                       0.63619                       0.01407                      -0.09399
                       0.63610                       0.01404                      -0.09402
                       0.63591                       0.01400                      -0.09403
                       0.63560                       0.01397                      -0.09400
                       0.63520                       0.01393                      -0.09394
                       0.63472                       0.01390                      -0.09385
                       0.63418                       0.01388                      -0.09373
                       0.63360                       0.01387                      -0.09358
                       0.63300                       0.01387                      -0.09340
                       0.63238                       0.01389                      -0.09319
                       0.63175                       0.01392                      -0.09296
                       0.63113                       0.01396                      -0.09271
                       0.63052                       0.01401                      -0.09243
                       0.62992                       0.01408                      -0.09214
                       0.62934                       0.01416                      -0.09182
                       0.62878                       0.01426                      -0.09148
                       0.62824                       0.01438                      -0.09112
                       0.62772                       0.01451                      -0.09074
                       0.62722                       0.01466                      -0.09034
                       0.62674                       0.01482                      -0.08991
                       0.62628                       0.01500                      -0.08946
                       0.62584                       0.01520                      -0.08898
                       0.62540                       0.01542                      -0.08848
                       0.62498                       0.01565                      -0.08794
                       0.62456                       0.01591                      -0.08737
                       0.62414                       0.01619                      -0.08677
                       0.62372                       0.01648                      -0.08613
                       0.62330                       0.01680                      -0.08545
                       0.62287                       0.01714                      -0.08473
                       0.62243                       0.01750                      -0.08398
                       0.62198                       0.01788                      -0.08318
                       0.62151                       0.01828                      -0.08234
                       0.62103                       0.01870                      -0.08147
                       0.62053                       0.01914                      -0.08056
                       0.62002                       0.01959                      -0.07961
                       0.61950                       0.02007                      -0.07863
                       0.61896                       0.02056                      -0.07761
                       0.61843                       0.02106                      -0.07658
                       0.61789                       0.02158                      -0.07552
                       0.61736                       0.02210                      -0.07445
                       0.61684                       0.02263                      -0.07338
                       0.61633                       0.02315                      -0.07231
                       0.61586                       0.02368                      -0.07126
                       0.61542                       0.02419                      -0.07024
                       0.61504                       0.02469                      -0.06926
                       0.61472                       0.02516                      -0.06834
                       0.61449                       0.02561                      -0.06749
                       0.61436                       0.02602                      -0.06673
                       0.61436                       0.02639                      -0.06609
                       0.61447                       0.02672                      -0.06554
        </DataArray>
        <DataArray type="Float32" Name="TranslationalAcceleration" NumberOfComponents="3" format="ascii">
                       0.24869                      -1.57852                       0.89699
                       0.38400                      -2.36964                       1.47726
                       0.51818                      -3.16992                       2.04338
                       0.64967                      -3.98790                       2.58140
                       0.77939                      -4.81848                       3.09744
                       0.90816                      -5.65681                       3.59759
                       1.03688                      -6.49761                       4.08907
                       1.16685                      -7.33368                       4.58280
                       1.29853                      -8.16240                       5.08336
                       1.42916                      -8.99558                       5.57176
                       1.55882                      -9.83169                       6.05036
                       1.68798                     -10.66784                       6.52445
                       1.81734                     -11.50064                       7.00090
                       1.94604                     -12.33326                       7.47500
                       2.07270                     -13.17063                       7.93828
                       2.19707                     -14.01269                       8.39086
                       2.31904                     -14.85897                       8.83367
                       2.43842                     -15.70934                       9.26702
                       2.55510                     -16.56327                       9.69192
                       2.66893                     -17.42041                      10.10900
                       2.77974                     -18.28060                      10.51863
                       2.88730                     -19.14389                      10.92087
                       2.99136                     -20.01053                      11.31554
                       3.09166                     -20.88069                      11.70250
                       3.18800                     -21.75436                      12.08194
                       3.28016                     -22.63158                      12.45391
                       3.36788                     -23.51240                      12.81830
                       3.45085                     -24.39697                      13.17491
                       3.52886                     -25.28528                      13.52414
                       3.60160                     -26.17763                      13.86562
                       3.66877                     -27.07415                      14.19922
                       3.73008                     -27.97496                      14.52474
                       3.78525                     -28.88009                      14.84212
                       3.83397                     -29.78957                      15.15115
                       3.87595                     -30.70341                      15.45160
                       3.91090                     -31.62189                      15.74330
                       3.93855                     -32.54525                      16.02609
                       3.95864                     -33.47348                      16.29996
                       3.97098                     -34.40661                      16.56491
                       3.97538                     -35.34450                      16.82105
                       3.97169                     -36.28707                      17.06815
                       3.95987                     -37.23418                      17.30625
                       3.93998                     -38.18553                      17.53562
                       3.91223                     -39.14092                      17.75701
                       3.87693                     -40.09979                      17.97126
                       3.83453                     -41.06148                      18.17944
                       3.78559                     -42.02517                      18.38275
                       3.73084                     -42.98993                      18.58266
                       3.67121                     -43.95435                      18.78131
                       3.61445                     -44.90689                      19.03728
        </DataArray>
        <DataArray type="Float32" Name="OrientationX" NumberOfComponents="3" format="ascii">
                       0.97821                       0.19179                       0.07954
                       0.97809                       0.19266                       0.07891
                       0.97810                       0.19435                       0.07442
                       0.97882                       0.19396                       0.06546
                       0.98041                       0.18929                       0.05441
                       0.98260                       0.18094                       0.04202
                       0.98508                       0.16963                       0.02903
                       0.98750                       0.15684                       0.01580
                       0.98921                       0.14648                       0.00122
                       0.99017                       0.13917                      -0.01400
                       0.99086                       0.13215                      -0.02711
                       0.99156                       0.12423                      -0.03700
                       0.99225                       0.11578                      -0.04506
                       0.99272                       0.10798                      -0.05345
                       0.99299                       0.10078                      -0.06173
                       0.99318                       0.09361                      -0.06944
                       0.99332                       0.08647                      -0.07640
                       0.99337                       0.07990                      -0.08266
                       0.99324                       0.07480                      -0.08877
                       0.99293                       0.07137                      -0.09488
                       0.99247                       0.06920                      -0.10105
                       0.99200                       0.06722                      -0.10682
                       0.99167                       0.06428                      -0.11159
                       0.99148                       0.06044                      -0.11542
                       0.99141                       0.05571                      -0.11837
                       0.99140                       0.05046                      -0.12075
                       0.99121                       0.04671                      -0.12374
                       0.99083                       0.04484                      -0.12744
                       0.99042                       0.04341                      -0.13106
                       0.99011                       0.04134                      -0.13403
                       0.98996                       0.03806                      -0.13615
                       0.98993                       0.03362                      -0.13753
                       0.98999                       0.02806                      -0.13832
                       0.99009                       0.02155                      -0.13879
                       0.99005                       0.01536                      -0.13988
                       0.98977                       0.01012                      -0.14231
                       0.98935                       0.00454                      -0.14546
                       0.98892                      -0.00144                      -0.14841
                       0.98852                      -0.00760                      -0.15088
                       0.98821                      -0.01383                      -0.15245
                       0.98802                      -0.01962                      -0.15309
                       0.98809                      -0.02420                      -0.15195
                       0.98827                      -0.02759                      -0.15019
                       0.98848                      -0.03011                      -0.14830
                       0.98876                      -0.03219                      -0.14602
                       0.98909                      -0.03379                      -0.14339
                       0.98948                      -0.03467                      -0.14043
                       0.98998                      -0.03490                      -0.13684
                       0.99052                      -0.03391                      -0.13310
                       0.99118                      -0.03299                      -0.12831
        </DataArray>
        <DataArray type="Float32" Name="OrientationY" NumberOfComponents="3" format="ascii">
                       0.16321                      -0.47349                      -0.86554
                       0.16307                      -0.47334                      -0.86565
                       0.15993                      -0.47312                      -0.86636
                       0.15190                      -0.47380                      -0.86743
                       0.14006                      -0.47586                      -0.86830
                       0.12535                      -0.47895                      -0.86885
                       0.10872                      -0.48267                      -0.86903
                       0.09117                      -0.48648                      -0.86892
                       0.07356                      -0.48954                      -0.86887
                       0.05684                      -0.49182                      -0.86884
                       0.04211                      -0.49385                      -0.86853
                       0.02972                      -0.49577                      -0.86795
                       0.01868                      -0.49756                      -0.86723
                       0.00765                      -0.49915                      -0.86648
                      -0.00302                      -0.50056                      -0.86570
                      -0.01317                      -0.50184                      -0.86486
                      -0.02266                      -0.50300                      -0.86399
                      -0.03129                      -0.50400                      -0.86314
                      -0.03906                      -0.50478                      -0.86236
                      -0.04601                      -0.50540                      -0.86166
                      -0.05239                      -0.50590                      -0.86100
                      -0.05833                      -0.50637                      -0.86034
                      -0.06388                      -0.50688                      -0.85965
                      -0.06906                      -0.50739                      -0.85894
                      -0.07393                      -0.50791                      -0.85823
                      -0.07857                      -0.50841                      -0.85752
                      -0.08298                      -0.50886                      -0.85684
                      -0.08708                      -0.50925                      -0.85620
                      -0.09088                      -0.50965                      -0.85557
                      -0.09443                      -0.51007                      -0.85493
                      -0.09786                      -0.51051                      -0.85429
                      -0.10124                      -0.51097                      -0.85362
                      -0.10467                      -0.51143                      -0.85293
                      -0.10832                      -0.51190                      -0.85219
                      -0.11234                      -0.51237                      -0.85138
                      -0.11704                      -0.51286                      -0.85045
                      -0.12253                      -0.51336                      -0.84938
                      -0.12805                      -0.51384                      -0.84827
                      -0.13326                      -0.51430                      -0.84719
                      -0.13775                      -0.51474                      -0.84621
                      -0.14122                      -0.51516                      -0.84538
                      -0.14256                      -0.51561                      -0.84488
                      -0.14276                      -0.51608                      -0.84456
                      -0.14241                      -0.51655                      -0.84433
                      -0.14151                      -0.51700                      -0.84421
                      -0.14006                      -0.51742                      -0.84419
                      -0.13798                      -0.51779                      -0.84431
                      -0.13501                      -0.51811                      -0.84459
                      -0.13130                      -0.51837                      -0.84502
                      -0.12672                      -0.51855                      -0.84561
        </DataArray>
        <DataArray type="Float32" Name="OrientationZ" NumberOfComponents="3" format="ascii">
                      -0.12834                       0.85966                      -0.49448
                      -0.12942                       0.85955                      -0.49438
                      -0.13317                       0.85929                      -0.49385
                      -0.13724                       0.85901                      -0.49323
                      -0.13847                       0.85891                      -0.49305
                      -0.13709                       0.85899                      -0.49330
                      -0.13340                       0.85922                      -0.49391
                      -0.12859                       0.85950                      -0.49470
                      -0.12668                       0.85959                      -0.49503
                      -0.12780                       0.85950                      -0.49490
                      -0.12816                       0.85945                      -0.49490
                      -0.12617                       0.85953                      -0.49528
                      -0.12283                       0.85967                      -0.49587
                      -0.12024                       0.85976                      -0.49634
                      -0.11814                       0.85982                      -0.49675
                      -0.11580                       0.85988                      -0.49719
                      -0.11314                       0.85995                      -0.49768