<?xml version="1.0"?>
<VTKFile type="PolyData" version="0.1" byte_order="LittleEndian">
  <PolyData>
    <Piece NumberOfPoints="     50" NumberOfVerts="  0" NumberOfLines="     49"
           NumberOfStrips="  0" NumberOfPolys="      0">
      <Points>
        <DataArray type="Float32" NumberOfComponents="3" format="ascii">
                      23.33192                       2.69278                     152.26476
                      23.43369                       4.58732                     153.71684
                      23.53560                       6.45900                     155.19677
                      23.63412                       8.28522                     156.73226
                      23.73349                      10.08102                     158.30475
                      23.83765                      11.86065                     159.89660
                      23.94959                      13.63977                     161.48851
                      24.07011                      15.44007                     163.05380
                      24.19774                      17.27072                     164.58125
                      24.32572                      19.09686                     166.11395
                      24.45278                      20.92313                     167.64633
                      24.58120                      22.75934                     169.16631
                      24.71575                      24.61773                     170.65842
                      24.85774                      26.48923                     172.13363
                      25.00769                      28.35802                     173.61127
                      25.16635                      30.22386                     175.09154
                      25.33416                      32.08792                     176.57292
                      25.51218                      33.95022                     178.05523
                      25.69859                      35.81197                     179.53712
                      25.88927                      37.67381                     181.01841
                      26.08152                      39.53597                     182.49928
                      26.27294                      41.39824                     183.98058
                      26.46654                      43.26009                     185.46278
                      26.66620                      45.12112                     186.94591
                      26.87427                      46.98160                     188.42937
                      27.09427                      48.84144                     189.91269
                      27.32631                      50.70059                     191.39596
                      27.56313                      52.55920                     192.88062
                      27.80298                      54.41837                     194.36601
                      28.04626                      56.27798                     195.85260
                      28.29713                      58.13823                     197.33951
                      28.55868                      59.99929                     198.82600
                      28.83456                      61.86147                     200.31084
                      29.12720                      63.72491                     201.79322
                      29.43901                      65.58958                     203.27234
                      29.76497                      67.45603                     204.74900
                      30.10334                      69.32452                     206.22345
                      30.45565                      71.19532                     207.69486
                      30.82246                      73.06862                     209.16273
                      31.20518                      74.94450                     210.62626
                      31.60487                      76.82229                     212.08559
                      32.02109                      78.70165                     213.54092
                      32.45367                      80.58224                     214.99225
                      32.89940                      82.46446                     216.43982
                      33.35784                      84.34815                     217.88334
                      33.82808                      86.23307                     219.32271
                      34.30922                      88.11858                     220.75813
                      34.79935                      90.00396                     222.19025
                      35.29808                      91.88861                     223.61852
                      35.78071                      93.86119                     224.93539
        </DataArray>
      </Points>
      <PointData>
        <DataArray type="Float32" Name="TranslationalVelocity" NumberOfComponents="3" format="ascii">
                       1.02031                      -1.67484                       2.19332
                       1.25946                      -2.70532                       3.52104
                       1.49615                      -3.75542                       4.83282
                       1.72794                      -4.84424                       6.11293
                       1.95648                      -5.95932                       7.37193
                       2.18336                      -7.08885                       8.61983
                       2.41030                      -8.21968                       9.86761
                       2.63969                      -9.33319                      11.13055
                       2.87257                     -10.42135                      12.41511
                       3.10516                     -11.51360                      13.69690
                       3.33801                     -12.60589                      14.97920
                       3.57221                     -13.68999                      16.26887
                       3.80910                     -14.75559                      17.57449
                       4.04772                     -15.81052                      18.88967
                       4.28635                     -16.86845                      20.20327
                       4.52499                     -17.92961                      21.51508
                       4.76377                     -18.99295                      22.82592
                       5.00269                     -20.05848                      24.13577
                       5.24190                     -21.12503                      25.44548
                       5.48146                     -22.19194                      26.75553
                       5.72142                     -23.25902                      28.06610
                       5.96176                     -24.32657                      29.37706
                       6.20240                     -25.39528                      30.68799
                       6.44329                     -26.46563                      31.99857
                       6.68447                     -27.53748                      33.30896
                       6.92589                     -28.61095                      34.61907
                       7.16755                     -29.68610                      35.92886
                       7.40947                     -30.76308                      37.23850
                       7.65177                     -31.84122                      38.54883
                       7.89444                     -32.92093                      39.85975
                       8.13747                     -34.00207                      41.17139
                       8.38087                     -35.08454                      42.48383
                       8.62465                     -36.16792                      43.79729
                       8.86881                     -37.25196                      45.11184
                       9.11333                     -38.33640                      46.42747
                       9.35826                     -39.42122                      47.74463
                       9.60363                     -40.50639                      49.06355
                       9.84945                     -41.59152                      50.38442
                      10.09573                     -42.67634                      51.70737
                      10.34245                     -43.76045                      53.03246
                      10.58953                     -44.84411                      54.35920
                      10.83690                     -45.92737                      55.68737
                      11.08450                     -47.01022                      57.01669
                      11.33236                     -48.09240                      58.34748
                      11.58044                     -49.17364                      59.67960
                      11.82868                     -50.25370                      61.01281
                      12.07696                     -51.33255                      62.34665
                      12.32519                     -52.41036                      63.68051
                      12.57325                     -53.48660                      65.01389
                      12.83079                     -54.48174                      66.40990
        </DataArray>
        <DataArray type="Float32" Name="RotationalVelocity" NumberOfComponents="3" format="ascii">
                       0.70127                       0.00876                      -0.11951
                       0.70131                       0.00877                      -0.11952
                       0.70138                       0.00877                      -0.11953
                       0.70150                       0.00879                      -0.11955
                       0.70165                       0.00880                      -0.11958
                       0.70183                       0.00883                      -0.11962
                       0.70203                       0.00886                      -0.11967
                       0.70224                       0.00890                      -0.11973
                       0.70246                       0.00895                      -0.11980
                       0.70269                       0.00901                      -0.11988
                       0.70292                       0.00907                      -0.11997
                       0.70315                       0.00914                      -0.12006
                       0.70337                       0.00921                      -0.12016
                       0.70359                       0.00929                      -0.12027
                       0.70380                       0.00937                      -0.12038
                       0.70400                       0.00945                      -0.12049
                       0.70420                       0.00954                      -0.12061
                       0.70439                       0.00963                      -0.12072
                       0.70457                       0.00972                      -0.12084
                       0.70474                       0.00981                      -0.12096
                       0.70491                       0.00990                      -0.12108
                       0.70507                       0.00999                      -0.12120
                       0.70523                       0.01008                      -0.12131
                       0.70539                       0.01016                      -0.12142
                       0.70555                       0.01025                      -0.12153
                       0.70571                       0.01033                      -0.12164
                       0.70587                       0.01041                      -0.12175
                       0.70603                       0.01049                      -0.12185
                       0.70620                       0.01056                      -0.12195
                       0.70638                       0.01063                      -0.12204
                       0.70657                       0.01070                      -0.12213
                       0.70676                       0.01076                      -0.12222
                       0.70696                       0.01082                      -0.12230
                       0.70717                       0.01088                      -0.12238
                       0.70739                       0.01093                      -0.12245
                       0.70762                       0.01098                      -0.12252
                       0.70786                       0.01102                      -0.12259
                       0.70810                       0.01106                      -0.12265
                       0.70835                       0.01110                      -0.12271
                       0.70859                       0.01113                      -0.12276
                       0.70884                       0.01116                      -0.12281
                       0.70908                       0.01119                      -0.12285
                       0.70931                       0.01121                      -0.12289
                       0.70953                       0.01122                      -0.12292
                       0.70973                       0.01123                      -0.12294
                       0.70990                       0.01123                      -0.12295
                       0.71003                       0.01123                      -0.12295
                       0.71013                       0.01122                      -0.12294
                       0.71017                       0.01120                      -0.12292
                       0.71016                       0.01118                      -0.12290
        </DataArray>
        <DataArray type="Float32" Name="TranslationalAcceleration" NumberOfComponents="3" format="ascii">
                      -0.23251                      -1.54945                      -1.25467
                      -0.34223                      -2.50579                      -1.98392
                      -0.45444                      -3.45072                      -2.72683
                      -0.57161                      -4.37297                      -3.49670
                      -0.69215                      -5.28029                      -4.28487
                      -0.81455                      -6.18002                      -5.08308
                      -0.93711                      -7.08019                      -5.88217
                      -1.05743                      -7.99190                      -6.66914
                      -1.17447                      -8.91985                      -7.43831
                      -1.29199                      -9.84641                      -8.21028
                      -1.40947                     -10.77397                      -8.98221
                      -1.52583                     -11.70750                      -9.74833
                      -1.63972                     -12.65320                     -10.50139
                      -1.75215                     -13.60644                     -11.24689
                      -1.86486                     -14.55916                     -11.99440
                      -1.97789                     -15.51120                     -12.74408
                      -2.09111                     -16.46312                     -13.49522
                      -2.20452                     -17.41490                     -14.24782
                      -2.31798                     -18.36713                     -15.00107
                      -2.43140                     -19.32014                     -15.75451
                      -2.54479                     -20.27403                     -16.50800
                      -2.65818                     -21.22869                     -17.26177
                      -2.77168                     -22.18381                     -18.01628
                      -2.88539                     -23.13917                     -18.77190
                      -2.99930                     -24.09489                     -19.52852
                      -3.11344                     -25.05088                     -20.28622
                      -3.22787                     -26.00713                     -21.04504
                      -3.34261                     -26.96377                     -21.80510
                      -3.45761                     -27.92141                     -22.56591
                      -3.57295                     -28.88000                     -23.32774
                      -3.68864                     -29.83966                     -24.09051
                      -3.80471                     -30.80047                     -24.85414
                      -3.92113                     -31.76261                     -25.61832
                      -4.03790                     -32.72616                     -26.38285
                      -4.15502                     -33.69115                     -27.14756
                      -4.27251                     -34.65789                     -27.91241
                      -4.39040                     -35.62660                     -28.67736
                      -4.50866                     -36.59741                     -29.44213
                      -4.62728                     -37.57045                     -30.20652
                      -4.74624                     -38.54575                     -30.97023
                      -4.86558                     -39.52297                     -31.73341
                      -4.98533                     -40.50190                     -32.49613
                      -5.10551                     -41.48235                     -33.25833
                      -5.22609                     -42.46449                     -34.01986
                      -5.34703                     -43.44815                     -34.78051
                      -5.46831                     -44.43309                     -35.54012
                      -5.58991                     -45.41885                     -36.29868
                      -5.71185                     -46.40489                     -37.05631
                      -5.83402                     -47.39064                     -37.81268
                      -5.94576                     -48.42140                     -38.51099
        </DataArray>
        <DataArray type="Float32" Name="OrientationX" NumberOfComponents="3" format="ascii">
                       0.98935                      -0.12313                       0.07763
                       0.98942                      -0.12222                       0.07822
                       0.98999                      -0.11755                       0.07809
                       0.99120                      -0.10963                       0.07423
                       0.99268                      -0.10146                       0.06546
                       0.99423                      -0.09348                       0.05268
                       0.99561                      -0.08610                       0.03683
                       0.99668                      -0.07906                       0.01949
                       0.99755                      -0.06990                       0.00395
                       0.99821                      -0.05905                      -0.00897
                       0.99853                      -0.05008                      -0.02085
                       0.99848                      -0.04447                      -0.03244
                       0.99820                      -0.04078                      -0.04388
                       0.99782                      -0.03657                      -0.05485
                       0.99735                      -0.03226                      -0.06523
                       0.99675                      -0.02851                      -0.07539
                       0.99603                      -0.02547                      -0.08526
                       0.99527                      -0.02289                      -0.09438
                       0.99458                      -0.01997                      -0.10208
                       0.99399                      -0.01648                      -0.10825
                       0.99348                      -0.01251                      -0.11328
                       0.99297                      -0.00887                      -0.11802
                       0.99234                      -0.00655                      -0.12332
                       0.99161                      -0.00546                      -0.12916
                       0.99076                      -0.00555                      -0.13555
                       0.98981                      -0.00640                      -0.14223
                       0.98900                      -0.00618                      -0.14775
                       0.98840                      -0.00465                      -0.15182
                       0.98784                      -0.00307                      -0.15546
                       0.98720                      -0.00237                      -0.15949
                       0.98640                      -0.00292                      -0.16437
                       0.98542                      -0.00461                      -0.17009
                       0.98425                      -0.00727                      -0.17663
                       0.98288                      -0.01058                      -0.18396
                       0.98146                      -0.01320                      -0.19120
                       0.98009                      -0.01423                      -0.19804
                       0.97856                      -0.01471                      -0.20542
                       0.97691                      -0.01549                      -0.21309
                       0.97519                      -0.01679                      -0.22073
                       0.97345                      -0.01893                      -0.22811
                       0.97182                      -0.02177                      -0.23473
                       0.97053                      -0.02584                      -0.23958
                       0.96953                      -0.03005                      -0.24311
                       0.96874                      -0.03401                      -0.24573
                       0.96807                      -0.03812                      -0.24777
                       0.96754                      -0.04230                      -0.24916
                       0.96720                      -0.04645                      -0.24972
                       0.96707                      -0.05086                      -0.24938
                       0.96727                      -0.05485                      -0.24777
                       0.96749                      -0.05973                      -0.24577
        </DataArray>
        <DataArray type="Float32" Name="OrientationY" NumberOfComponents="3" format="ascii">
                       0.13783                       0.62103                      -0.77157
                       0.13773                       0.62119                      -0.77146
                       0.13471                       0.62228                      -0.77111
                       0.12676                       0.62398                      -0.77109
                       0.11482                       0.62545                      -0.77177
                       0.09987                       0.62661                      -0.77291
                       0.08290                       0.62744                      -0.77424
                       0.06499                       0.62809                      -0.77542
                       0.04715                       0.62907                      -0.77592
                       0.03031                       0.63023                      -0.77581
                       0.01545                       0.63100                      -0.77563
                       0.00291                       0.63128                      -0.77555
                      -0.00830                       0.63131                      -0.77549
                      -0.01947                       0.63140                      -0.77522
                      -0.03025                       0.63148                      -0.77480
                      -0.04050                       0.63150                      -0.77432
                      -0.05009                       0.63146                      -0.77379
                      -0.05880                       0.63139                      -0.77323
                      -0.06663                       0.63136                      -0.77262
                      -0.07361                       0.63137                      -0.77198
                      -0.08000                       0.63139                      -0.77133
                      -0.08596                       0.63136                      -0.77071
                      -0.09155                       0.63126                      -0.77015
                      -0.09677                       0.63109                      -0.76965
                      -0.10170                       0.63088                      -0.76918
                      -0.10639                       0.63065                      -0.76874
                      -0.11084                       0.63045                      -0.76828
                      -0.11498                       0.63025                      -0.76783
                      -0.11882                       0.63003                      -0.76742
                      -0.12242                       0.62977                      -0.76707
                      -0.12590                       0.62948                      -0.76675
                      -0.12935                       0.62916                      -0.76644
                      -0.13284                       0.62882                      -0.76612
                      -0.13656                       0.62847                      -0.76575
                      -0.14064                       0.62813                      -0.76529
                      -0.14540                       0.62777                      -0.76470
                      -0.15094                       0.62739                      -0.76393
                      -0.15651                       0.62701                      -0.76313
                      -0.16177                       0.62661                      -0.76236
                      -0.16632                       0.62621                      -0.76171
                      -0.16985                       0.62581                      -0.76126
                      -0.17128                       0.62537                      -0.76130
                      -0.17160                       0.62490                      -0.76161
                      -0.17137                       0.62443                      -0.76205
                      -0.17060                       0.62399                      -0.76259
                      -0.16928                       0.62357                      -0.76322
                      -0.16732                       0.62318                      -0.76397
                      -0.16449                       0.62282                      -0.76488
                      -0.16089                       0.62250                      -0.76590
                      -0.15644                       0.62222                      -0.76706
        </DataArray>
        <DataArray type="Float32" Name="OrientationZ" NumberOfComponents="3" format="ascii">
                       0.04680                       0.77406                       0.63138
                       0.04570                       0.77407                       0.63145
                       0.04205                       0.77392                       0.63189
                       0.03822                       0.77371                       0.63238
                       0.03736                       0.77364                       0.63252
                       0.03924                       0.77371                       0.63233
                       0.04355                       0.77389                       0.63182
                       0.04906                       0.77411                       0.63114
                       0.05175                       0.77420                       0.63082
                       0.05146                       0.77416                       0.63090
                       0.05200                       0.77416                       0.63085
                       0.05497                       0.77428                       0.63045
                       0.05933                       0.77446                       0.62984
                       0.06298                       0.77460                       0.62931
                       0.06619                       0.77472                       0.62883
                       0.06969                       0.77485                       0.62829
                       0.07354                       0.77499                       0.62768