<?xml version="1.0"?>
<VTKFile type="PolyData" version="0.1" byte_order="LittleEndian">
  <PolyData>
    <Piece NumberOfPoints="     50" NumberOfVerts="  0" NumberOfLines="     49"
           NumberOfStrips="  0" NumberOfPolys="      0">
      <Points>
        <DataArray type="Float32" NumberOfComponents="3" format="ascii">
                      24.82914                       3.49031                     149.36855
                      24.61421                       5.83839                     148.98322
                      24.40071                       8.19123                     148.63351
                      24.18645                      10.55322                     148.35495
                      23.97490                      12.92159                     148.12363
                      23.76923                      15.29369                     147.91687
                      23.57162                      17.66646                     147.70986
                      23.38172                      20.03531                     147.46849
                      23.19760                      22.39809                     147.17849
                      23.01450                      24.76166                     146.89502
                      22.83091                      27.12497                     146.61096
                      22.64860                      29.48615                     146.31077
                      22.47166                      31.84282                     145.97471
                      22.30192                      34.19696                     145.61682
                      22.14079                      36.55200                     145.26181
                      21.98904                      38.90802                     144.90997
                      21.84707                      41.26476                     144.55936
                      21.71596                      43.62220                     144.20981
                      21.59385                      45.97999                     143.85960
                      21.47660                      48.33790                     143.50837
                      21.36152                      50.69591                     143.15620
                      21.24623                      53.05418                     142.80395
                      21.13376                      55.41308                     142.45218
                      21.02804                      57.77284                     142.10098
                      20.93141                      60.13348                     141.74964
                      20.84741                      62.49502                     141.39770
                      20.77617                      64.85751                     141.04525
                      20.71043                      67.22121                     140.69354
                      20.64837                      69.58618                     140.34136
                      20.59041                      71.95273                     139.98911
                      20.54071                      74.32084                     139.63579
                      20.50237                      76.69046                     139.28061
                      20.47906                      79.06133                     138.92229
                      20.47324                      81.43321                     138.56005
                      20.48735                      83.80578                     138.19320
                      20.51633                      86.17938                     137.82215
                      20.55841                      88.55416                     137.44694
                      20.61514                      90.92984                     137.06671
                      20.68706                      93.30625                     136.68093
                      20.77562                      95.68298                     136.28895
                      20.88193                      98.05981                     135.89128
                      21.00557                     100.43658                     135.48833
                      21.14638                     102.81301                     135.08038
                      21.30112                     105.18918                     134.66749
                      21.46934                     107.56469                     134.24964
                      21.65014                     109.93919                     133.82705
                      21.84262                     112.31229                     133.40041
                      22.04488                     114.68374                     132.97087
                      22.25657                     117.05271                     132.53862
                      22.44814                     119.39741                     131.96702
        </DataArray>
      </Points>
      <PointData>
        <DataArray type="Float32" Name="TranslationalVelocity" NumberOfComponents="3" format="ascii">
                       0.27530                       0.29001                       2.78146
                       0.58183                       0.59812                       4.48799
                       0.88911                       0.88015                       6.19794
                       1.19794                       1.11060                       7.91449
                       1.50789                       1.30639                       9.63561
                       1.81856                       1.48357                      11.35933
                       2.12948                       1.65987                      13.08342
                       2.43993                       1.86012                      14.80454
                       2.74959                       2.09494                      16.52111
                       3.05962                       2.32487                      18.23813
                       3.36987                       2.55531                      19.95486
                       3.68003                       2.79729                      21.66990
                       3.98974                       3.06461                      23.38151
                       4.29934                       3.34682                      25.09114
                       4.60938                       3.62581                      26.80125
                       4.91990                       3.90125                      28.51189
                       5.23087                       4.17450                      30.22288
                       5.54232                       4.44554                      31.93421
                       5.85419                       4.71586                      33.64561
                       6.16649                       4.98628                      35.35694
                       6.47924                       5.25709                      37.06818
                       6.79248                       5.52799                      38.77948
                       7.10630                       5.79817                      40.49105
                       7.42074                       6.06705                      42.20307
                       7.73585                       6.33482                      43.91553
                       8.05164                       6.60135                      45.62842
                       8.36816                       6.86654                      47.34177
                       8.68548                       7.13047                      49.05579
                       9.00365                       7.39427                      50.77050
                       9.32274                       7.65758                      52.48613
                       9.64279                       7.92058                      54.20264
                       9.96382                       8.18341                      55.91995
                      10.28583                       8.44649                      57.63786
                      10.60881                       8.71007                      59.35616
                      10.93277                       8.97428                      61.07463
                      11.25777                       9.23950                      62.79348
                      11.58387                       9.50595                      64.51283
                      11.91105                       9.77403                      66.23247
                      12.23931                      10.04401                      67.95223
                      12.56862                      10.31618                      69.67184
                      12.89894                      10.58998                      71.39111
                      13.23026                      10.86515                      73.10992
                      13.56254                      11.14149                      74.82810
                      13.89578                      11.41941                      76.54571
                      14.22990                      11.69894                      78.26249
                      14.56481                      11.98004                      79.97821
                      14.90040                      12.26232                      81.69263
                      15.23657                      12.54518                      83.40563
                      15.57313                      12.82851                      85.11665
                      15.90654                      13.21528                      86.81007
        </DataArray>
        <DataArray type="Float32" Name="RotationalVelocity" NumberOfComponents="3" format="ascii">
                       0.72640                       0.00413                      -0.13123
                       0.72639                       0.00413                      -0.13122
                       0.72638                       0.00413                      -0.13123
                       0.72635                       0.00412                      -0.13125
                       0.72633                       0.00411                      -0.13130
                       0.72629                       0.00410                      -0.13136
                       0.72625                       0.00409                      -0.13143
                       0.72621                       0.00407                      -0.13151
                       0.72617                       0.00405                      -0.13161
                       0.72612                       0.00404                      -0.13171
                       0.72607                       0.00402                      -0.13181
                       0.72601                       0.00400                      -0.13193
                       0.72596                       0.00398                      -0.13205
                       0.72590                       0.00395                      -0.13218
                       0.72585                       0.00393                      -0.13231
                       0.72579                       0.00391                      -0.13245
                       0.72574                       0.00388                      -0.13260
                       0.72568                       0.00385                      -0.13276
                       0.72562                       0.00383                      -0.13293
                       0.72556                       0.00380                      -0.13310
                       0.72550                       0.00377                      -0.13328
                       0.72544                       0.00374                      -0.13348
                       0.72538                       0.00370                      -0.13368
                       0.72531                       0.00367                      -0.13390
                       0.72524                       0.00363                      -0.13413
                       0.72517                       0.00359                      -0.13437
                       0.72509                       0.00355                      -0.13462
                       0.72501                       0.00351                      -0.13489
                       0.72493                       0.00346                      -0.13517
                       0.72484                       0.00342                      -0.13546
                       0.72475                       0.00337                      -0.13577
                       0.72465                       0.00331                      -0.13609
                       0.72455                       0.00326                      -0.13642
                       0.72444                       0.00320                      -0.13677
                       0.72432                       0.00315                      -0.13712
                       0.72420                       0.00309                      -0.13749
                       0.72408                       0.00303                      -0.13786
                       0.72395                       0.00296                      -0.13824
                       0.72382                       0.00290                      -0.13863
                       0.72368                       0.00283                      -0.13901
                       0.72354                       0.00277                      -0.13940
                       0.72341                       0.00271                      -0.13979
                       0.72327                       0.00264                      -0.14017
                       0.72315                       0.00258                      -0.14054
                       0.72303                       0.00252                      -0.14089
                       0.72292                       0.00247                      -0.14123
                       0.72282                       0.00242                      -0.14155
                       0.72274                       0.00237                      -0.14184
                       0.72268                       0.00233                      -0.14210
                       0.72264                       0.00230                      -0.14233
        </DataArray>
        <DataArray type="Float32" Name="TranslationalAcceleration" NumberOfComponents="3" format="ascii">
                       0.06924                      -2.13315                       0.31905
                       0.11719                      -3.41123                       0.55202
                       0.16177                      -4.69200                       0.76621
                       0.19967                      -5.97803                       0.94323
                       0.23312                      -7.26767                       1.09548
                       0.26423                      -8.55935                       1.23470
                       0.29531                      -9.85126                       1.37382
                       0.32965                     -11.14068                       1.53091
                       0.36864                     -12.42632                       1.71368
                       0.40717                     -13.71225                       1.89354
                       0.44598                     -14.99785                       2.07441
                       0.48652                     -16.28196                       2.26428
                       0.53062                     -17.56315                       2.47314
                       0.57694                     -18.84256                       2.69340
                       0.62312                     -20.12223                       2.91191
                       0.66914                     -21.40223                       3.12841
                       0.71517                     -22.68239                       3.34386
                       0.76121                     -23.96274                       3.55823
                       0.80747                     -25.24306                       3.77257
                       0.85405                     -26.52324                       3.98745
                       0.90098                     -27.80328                       4.20308
                       0.94823                     -29.08328                       4.41921
                       0.99568                     -30.36344                       4.63525
                       1.04325                     -31.64390                       4.85075
                       1.09095                     -32.92465                       5.06588
                       1.13875                     -34.20572                       5.28050
                       1.18663                     -35.48711                       5.49455
                       1.23459                     -36.76899                       5.70811
                       1.28276                     -38.05138                       5.92200
                       1.33110                     -39.33442                       6.13597
                       1.37960                     -40.61811                       6.35017
                       1.42827                     -41.90239                       6.56471
                       1.47716                     -43.18711                       6.77990
                       1.52627                     -44.47211                       6.99594
                       1.57561                     -45.75721                       7.21293
                       1.62522                     -47.04258                       7.43118
                       1.67511                     -48.32829                       7.65085
                       1.72533                     -49.61416                       7.87224
                       1.77589                     -50.90008                       8.09555
                       1.82683                     -52.18582                       8.32097
                       1.87804                     -53.47125                       8.54809
                       1.92947                     -54.75630                       8.77671
                       1.98107                     -56.04084                       9.00664
                       2.03288                     -57.32490                       9.23814
                       2.08488                     -58.60832                       9.47118
                       2.13704                     -59.89092                       9.70564
                       2.18928                     -61.17256                       9.94115
                       2.24148                     -62.45317                      10.17717
                       2.29361                     -63.73236                      10.41345
                       2.36003                     -64.99623                      10.72401
        </DataArray>
        <DataArray type="Float32" Name="OrientationX" NumberOfComponents="3" format="ascii">
                       0.99104                       0.09726                       0.09150
                       0.99096                       0.09831                       0.09125
                       0.99097                       0.10143                       0.08774
                       0.99140                       0.10408                       0.07928
                       0.99237                       0.10335                       0.06728
                       0.99364                       0.09956                       0.05265
                       0.99499                       0.09310                       0.03637
                       0.99617                       0.08526                       0.01934
                       0.99678                       0.08011                       0.00201
                       0.99685                       0.07798                      -0.01473
                       0.99673                       0.07526                      -0.02938
                       0.99666                       0.07044                      -0.04137
                       0.99658                       0.06437                      -0.05184
                       0.99631                       0.05898                      -0.06236
                       0.99590                       0.05406                      -0.07255
                       0.99542                       0.04890                      -0.08217
                       0.99490                       0.04345                      -0.09106
                       0.99434                       0.03821                      -0.09910
                       0.99373                       0.03424                      -0.10643
                       0.99307                       0.03178                      -0.11313
                       0.99238                       0.03046                      -0.11939
                       0.99170                       0.02913                      -0.12522
                       0.99110                       0.02647                      -0.13047
                       0.99057                       0.02257                      -0.13517
                       0.99008                       0.01746                      -0.13939
                       0.98962                       0.01159                      -0.14325
                       0.98909                       0.00731                      -0.14710
                       0.98853                       0.00499                      -0.15092
                       0.98799                       0.00300                      -0.15449
                       0.98749                       0.00012                      -0.15768
                       0.98702                      -0.00424                      -0.16052
                       0.98656                      -0.01001                      -0.16310
                       0.98606                      -0.01706                      -0.16553
                       0.98547                      -0.02515                      -0.16800
                       0.98474                      -0.03272                      -0.17091
                       0.98385                      -0.03891                      -0.17470
                       0.98276                      -0.04515                      -0.17927
                       0.98160                      -0.05181                      -0.18379
                       0.98042                      -0.05881                      -0.18793
                       0.97931                      -0.06618                      -0.19126
                       0.97834                      -0.07344                      -0.19356
                       0.97776                      -0.08019                      -0.19379
                       0.97742                      -0.08602                      -0.19302
                       0.97720                      -0.09098                      -0.19183
                       0.97709                      -0.09558                      -0.19015
                       0.97710                      -0.09972                      -0.18798
                       0.97725                      -0.10319                      -0.18528
                       0.97759                      -0.10611                      -0.18180
                       0.97815                      -0.10776                      -0.17778
                       0.97882                      -0.10971                      -0.17284
        </DataArray>
        <DataArray type="Float32" Name="OrientationY" NumberOfComponents="3" format="ascii">
                       0.10317                      -0.12263                      -0.98707
                       0.10304                      -0.12247                      -0.98711
                       0.09991                      -0.12191                      -0.98750
                       0.09182                      -0.12181                      -0.98830
                       0.07986                      -0.12289                      -0.98920
                       0.06498                      -0.12491                      -0.99004
                       0.04815                      -0.12755                      -0.99066
                       0.03040                      -0.13034                      -0.99100
                       0.01264                      -0.13239                      -0.99112
                      -0.00418                      -0.13376                      -0.99100
                      -0.01900                      -0.13509                      -0.99065
                      -0.03145                      -0.13655                      -0.99013
                      -0.04256                      -0.13800                      -0.98952
                      -0.05365                      -0.13927                      -0.98880
                      -0.06435                      -0.14037                      -0.98801
                      -0.07454                      -0.14140                      -0.98714
                      -0.08406                      -0.14234                      -0.98624
                      -0.09271                      -0.14317                      -0.98535
                      -0.10049                      -0.14382                      -0.98449
                      -0.10744                      -0.14431                      -0.98368
                      -0.11381                      -0.14471                      -0.98291
                      -0.11975                      -0.14511                      -0.98214
                      -0.12530                      -0.14556                      -0.98138
                      -0.13048                      -0.14604                      -0.98064
                      -0.13537                      -0.14654                      -0.97990
                      -0.14001                      -0.14704                      -0.97917
                      -0.14443                      -0.14748                      -0.97846
                      -0.14854                      -0.14789                      -0.97779
                      -0.15234                      -0.14831                      -0.97714
                      -0.15591                      -0.14877                      -0.97650
                      -0.15935                      -0.14927                      -0.97587
                      -0.16275                      -0.14979                      -0.97523
                      -0.16620                      -0.15032                      -0.97457
                      -0.16987                      -0.15085                      -0.97385
                      -0.17391                      -0.15136                      -0.97306
                      -0.17863                      -0.15187                      -0.97213
                      -0.18413                      -0.15235                      -0.97102
                      -0.18967                      -0.15282                      -0.96988
                      -0.19489                      -0.15328                      -0.96877
                      -0.19940                      -0.15374                      -0.96778
                      -0.20289                      -0.15424                      -0.96698
                      -0.20428                      -0.15487                      -0.96659
                      -0.20454                      -0.15557                      -0.96642
                      -0.20425                      -0.15630                      -0.96636
                      -0.20343                      -0.15701                      -0.96642
                      -0.20205                      -0.15770                      -0.96659
                      -0.20004                      -0.15836                      -0.96690
                      -0.19716                      -0.15898                      -0.96739
                      -0.19352                      -0.15955                      -0.96804
                      -0.18902                      -0.16007                      -0.96884
        </DataArray>
        <DataArray type="Float32" Name="OrientationZ" NumberOfComponents="3" format="ascii">
                      -0.08478                       0.98767                      -0.13157
                      -0.08587                       0.98759                      -0.13150
                      -0.08947                       0.98735                      -0.13094
                      -0.09321                       0.98708                      -0.13032
                      -0.09397                       0.98702                      -0.13021
                      -0.09199                       0.98716                      -0.13058
                      -0.08759                       0.98745                      -0.13139
                      -0.08197                       0.98780                      -0.13243
                      -0.07913                       0.98795                      -0.13298
                      -0.07925                       0.98794                      -0.13302
                      -0.07853                       0.98797                      -0.13322
                      -0.07539                       0.98813                      -0.13388
                      -0.07085                       0.98834                      -0.13479
                      -0.06701                       0.98850                      -0.13559
                      -0.06360                       0.98862                      -0.13632
                      -0.05989                       0.98874                      -0.13710
                      -0.05582                       0.98886                      -0.13796